LAMMPS data file via write_data, version 29 Aug 2024, timestep = 20000, units = real

3150 atoms
8 atom types
2100 bonds
7 bond types
1050 angles
8 angle types
0 dihedrals
4 dihedral types

-33.42153850332685 33.42153850332685 xlo xhi
-11.140512834442267 11.140512834442267 ylo yhi
-11.140512834442267 11.140512834442267 zlo zhi

Atom Type Labels

1 OE
2 C
3 HC
4 H
5 CPos
6 OAlc
7 OW
8 HW

Bond Type Labels

1 g4
2 g18
3 g26
4 g27
5 g56
6 g71
7 OW-HW

Angle Type Labels

1 g12
2 g13
3 g14
4 g15
5 g51
6 g56
7 g102
8 HW-OW-HW

Dihedral Type Labels

1 g23
2 g34
3 g46
4 glj14

Masses

1 15.9994
2 12.011
3 1.008
4 1.008
5 12.011
6 15.9994
7 15.9994
8 1.008

Pair Coeffs # lj/cut/coul/long/omp

1 0.2526 2.8492
2 0.0663 3.5812
3 0.0283 2.3734
4 0 0
5 0.245 2.8114
6 0.1195 3.1
7 0.155 3.165
8 0 0

Bond Coeffs # harmonic/omp

1 1109.29 1.12
2 399.792 1.43
3 299.844 1.52
4 400.034 1.53
5 310.707 1.41
6 179.254 0.971
7 529.581 1.012

Angle Coeffs # harmonic/omp

1 47.694 109.5
2 55.1271 109.5
3 47.635 109.6
4 55.1139 111
5 54.9931 110.3
6 180.46 109
7 30.1731 110
8 37.95 113.24

Dihedral Coeffs # harmonic/omp

1 0.3011 1 3
2 1.4149 1 3
3 0.239 -1 3
4 0 1 1

Atoms # full

3033 1011 8 0.41 -29.762212474280414 -7.462047585217093 -9.793463619879258 1 1 0
1910 637 8 0.41 -29.923582707510164 -4.538535412636334 -6.138302004408366 1 1 0
1909 637 7 -0.82 -29.88957667778442 -4.954504834854598 -7.0705049683477785 1 1 0
1911 637 8 0.41 -29.78231248120719 -5.974037197060396 -6.970745685834779 1 1 0
177 59 8 0.41 -27.220354893480156 -6.124640094052679 10.914940045362114 0 1 -1
3031 1011 7 -0.82 -29.053118079521678 -7.0707223566221 -9.150765086280016 1 1 0
3032 1011 8 0.41 -28.776365789708173 -6.117540120319714 -9.404289783530908 1 1 0
2696 899 8 0.41 -26.777266446077927 -4.920633496075586 -5.791341073123158 0 0 0
2697 899 8 0.41 -25.407134484332538 -4.8182258364225055 -6.688998936641996 0 0 0
2539 847 7 -0.82 -32.13963681195688 -4.0773263928260475 -8.973204311738204 1 0 0
2540 847 8 0.41 -32.35708294014289 -3.849315767355291 -9.95716772937043 1 0 0
2541 847 8 0.41 -32.1334486701041 -5.09906637525231 -8.860571851505583 1 0 0
497 166 8 0.41 -32.418493523016565 -10.218135576717696 -5.535705366213213 0 1 0
2961 987 8 0.41 -28.803087840377476 -6.103933857168334 -4.411833677464908 1 1 0
2959 987 7 -0.82 -29.000732338720656 -7.089859113590359 -4.622372009071187 1 1 0
2960 987 8 0.41 -29.41695128506846 -7.588674558574265 -3.8283370450268297 1 1 0
2779 927 7 -0.82 33.33757339780745 -7.798796678821683 -10.78591877156736 0 1 1
2860 954 7 -0.82 -32.61928751984598 -3.252449553133544 10.811055306296934 0 0 -1
778 260 7 -0.82 -32.42565307991699 -1.0749137051966589 -2.9909233427664113 0 1 0
2862 954 8 0.41 -33.164391602420714 -2.4146848559949294 10.576161251351335 0 0 -1
496 166 7 -0.82 -31.75078425938239 -9.451467753642723 -5.643536302587136 0 1 0
927 309 8 0.41 -27.726594030949517 -11.050551580599683 -9.113887038729686 0 1 0
2238 746 8 0.41 32.194711991597266 -5.068639533476876 -4.341774952390102 0 0 0
175 59 7 -0.82 -27.68419968668736 -5.215756781381471 10.931659093031202 0 1 -1
2695 899 7 -0.82 -25.756705612486492 -5.078598807533147 -5.781907946104963 0 0 0
495 165 8 0.41 -28.911287067389143 -3.6724948733776346 -4.200989195438973 1 0 0
2237 746 8 0.41 31.78541902882551 -6.348227169852142 -5.368289294220942 0 0 0
498 166 8 0.41 -31.814057264386417 -8.983530173070402 -6.547895693455249 0 1 0
1361 454 8 0.41 -33.02501631142939 -8.01723810082323 -9.176699306185665 0 1 0
1360 454 7 -0.82 -32.58810759516425 -8.301401172180842 -8.286788944396784 0 1 0
494 165 8 0.41 -27.46373258934155 -4.25005944250844 -3.687275276819925 1 0 0
493 165 7 -0.82 -28.21948423181231 -4.4290283609587 -4.335575191354517 1 0 0
753 251 8 0.41 -31.704863316836704 -7.869699762667127 10.936942999270817 0 1 -1
751 251 7 -0.82 -30.885679056314338 -7.273278599117379 10.792694205496142 0 1 -1
176 59 8 0.41 -27.701381621338896 -4.7732137843887426 -10.415517224523095 0 1 0
752 251 8 0.41 -30.652244054431012 -7.384644953174021 9.785484622640547 0 1 -1
2260 754 7 -0.82 -28.397081434667598 -9.652471488055383 9.470968297760967 0 0 -1
2261 754 8 0.41 -28.766256937061193 -8.781163501137828 9.054558965346187 0 0 -1
2262 754 8 0.41 -27.854214179095067 -9.427889281489154 10.32766539073136 0 0 -1
831 277 8 0.41 -26.91633530796804 -3.5850849571022048 -8.448465980400936 1 1 0
829 277 7 -0.82 -27.579783546312512 -4.252831375436228 -8.842086739656029 1 1 0
830 277 8 0.41 -28.40811544362668 -4.12602349218656 -8.231488953155484 1 1 0
1073 358 8 0.41 -27.993593744134888 -8.238100707880779 -6.050493430709753 0 0 0
2276 759 8 0.41 -23.27102566369996 -8.105590496168135 -4.699895490629235 0 0 0
2277 759 8 0.41 -23.117900880502958 -8.692521090021643 -6.191749581377521 0 0 0
2275 759 7 -0.82 -23.66864388506254 -8.024678600384963 -5.6410297800798705 0 0 0
1920 640 8 0.41 -23.187383381129052 -9.619516772757924 -8.66994753511738 0 0 0
1072 358 7 -0.82 -27.84773702120094 -8.483867040709347 -7.046369222146934 0 0 0
1074 358 8 0.41 -28.350343718871112 -7.714336490436867 -7.567068347485547 0 0 0
2770 924 7 -0.82 -24.773040534613234 -6.080518579922135 -3.261503936412619 0 1 0
2772 924 8 0.41 -24.385825967902942 -7.021388443867704 -3.335866662669887 0 1 0
2418 806 8 0.41 -24.379180500643535 -6.047187538157329 -8.523972735136725 0 0 1
2417 806 8 0.41 -22.72767066193007 -6.00562599241503 -8.827917338295425 0 0 1
2416 806 7 -0.82 -23.577494918983867 -5.434083659442115 -8.644619239813252 0 0 1
2771 924 8 0.41 -24.866831480266896 -5.850720416072734 -4.2665755394143074 0 1 0
875 292 8 0.41 -24.5873224681393 -3.8119419732904785 -5.233848473249665 0 0 0
874 292 7 -0.82 -24.32805242886169 -3.135746374914488 -4.5239077686909965 0 0 0
2543 848 8 0.41 -26.705069533560273 -9.746919677525746 -6.324353875821182 0 1 0
310 104 7 -0.82 -22.980554171781435 -8.315792906914233 -3.034694442253917 0 0 1
1598 533 8 0.41 -24.893689295334827 -7.5508131685596815 -6.770492454085071 0 0 0
1597 533 7 -0.82 -25.13906039556958 -7.51629174642007 -7.783295279173273 0 0 0
1599 533 8 0.41 -26.17469567102286 -7.561926031087485 -7.811730411952263 0 0 0
2852 951 8 0.41 -28.873088271740038 -4.945293614808933 6.07751756723148 1 0 -1
1919 640 8 0.41 -24.47058764499582 -8.811555121552185 -9.22937171388455 0 0 0
1918 640 7 -0.82 -23.77426638785432 -9.523960601913107 -9.518474900085346 0 0 0
1244 415 8 0.41 -22.59125204782378 -4.003797116532482 -9.803828903808817 0 0 1
1243 415 7 -0.82 -22.059468867896783 -3.1814966355365506 -10.09430671817539 0 0 1
2565 855 8 0.41 -19.410918257403466 -8.918943375334086 10.580319823653989 0 1 0
876 292 8 0.41 -25.1537871564098 -3.164505795100757 -3.88789789268153 0 0 0
2542 848 7 -0.82 -26.256548973689974 -10.56329192614476 -5.900770577479895 0 1 0
2662 888 7 -0.82 -23.75648290885166 10.627632984446349 -6.134939887591201 0 -1 0
2664 888 8 0.41 -24.653759438029628 11.102327808730399 -5.917725750468534 0 -1 0
174 58 8 0.41 -26.1201892395504 -4.005045402947248 -1.3842866589354035 1 1 0
172 58 7 -0.82 -25.950846830093028 -4.005065333189514 -2.391036127109709 1 1 0
539 180 8 0.41 -20.1881715179963 -5.825047959667153 -9.21665691119087 0 0 1
540 180 8 0.41 -20.420323601269047 -4.144103583374587 -9.164607462068927 0 0 1
538 180 7 -0.82 -19.95237744490407 -4.943477769407601 -8.720928152126628 0 0 1
2410 804 7 -0.82 -18.59423151744447 -8.884313500191775 -2.7608729322227035 0 0 1
2207 736 8 0.41 -19.971024569605362 -7.910175239879992 -6.343848480297884 0 0 0
2208 736 8 0.41 -19.139705826749807 -9.166742015905768 -5.688979291280315 0 0 0
2206 736 7 -0.82 -19.597259759645837 -8.849975866748078 -6.570177119358479 0 0 0
1581 527 8 0.41 -20.307708256343034 -5.2318961732808225 -6.997288594832577 0 0 0
185 62 8 0.41 -15.170440086184335 -8.24072313342138 -5.75961136700567 0 1 0
1579 527 7 -0.82 -20.305543940511065 -5.972094601276903 -6.2741372617904965 0 0 0
695 232 8 0.41 -19.12982987041975 -3.406487579096641 -4.534534123068032 0 0 1
2490 830 8 0.41 -18.721600909556386 -8.954754598725906 -8.025719549549796 0 1 0
2810 937 8 0.41 -17.270060600302724 -10.352166112797445 -9.387871809881009 0 1 1
1580 527 8 0.41 -19.71183267116099 -5.511419316525869 -5.538611014960716 0 0 0
145 49 7 -0.82 -15.880775147131569 -7.394374460186244 -10.340747539059794 0 1 0
147 49 8 0.41 -15.380008144622344 -6.82884203236772 -9.654400140062233 0 1 0
146 49 8 0.41 -16.41770769562013 -8.046972422378905 -9.766661857744312 0 1 0
3065 1022 8 0.41 -18.491740797557686 -5.602522863871608 -7.243121260352753 0 1 0
2240 747 8 0.41 -15.817615297531422 9.635229294428816 -9.045014831375697 0 -1 0
2239 747 7 -0.82 -15.01366870474244 9.002838393630993 -9.067822973336138 0 -1 0
2663 888 8 0.41 -23.371046351858617 10.552438462587089 -5.157608272897431 0 -1 0
477 159 8 0.41 -17.859385295627916 10.679084480058291 -1.6912267170041861 0 0 0
2702 901 8 0.41 -16.418344477674243 -9.348135549616652 -5.041736441750735 0 0 0
2701 901 7 -0.82 -17.392349876123518 -9.70978946503932 -4.957033873597393 0 0 0
2563 855 7 -0.82 -19.550572435275186 -8.11077943155767 -11.083373861809564 0 1 1
2489 830 8 0.41 -18.544917817291847 -8.387593571423587 -9.65217356615643 0 1 0
3064 1022 7 -0.82 -17.852120030574177 -4.93154905551406 -6.747353261301574 0 1 0
2488 830 7 -0.82 -18.084121372902445 -8.783201345167612 -8.81850627242896 0 1 0
2572 858 7 -0.82 -14.000972665225515 -6.727774836228933 -8.119390094824718 0 0 0
2241 747 8 0.41 -15.193369035305619 8.13935725286583 -9.563744145437258 0 -1 0
1151 384 8 0.41 -12.379158382671012 10.430927527640277 10.164664546056263 0 -1 0
1969 657 7 -0.82 -9.154846634731499 -6.071615528582082 -9.502800836006246 0 0 1
2689 897 7 -0.82 -13.07796298094378 -11.12473781587283 -6.529143771430798 0 0 0
1994 665 8 0.41 -11.588408604081145 -8.388705673866944 -6.699762762852558 0 0 0
1995 665 8 0.41 -12.81051121584996 -9.50872769778695 -6.506423167539815 0 0 0
1993 665 7 -0.82 -12.560179043143538 -8.610039550706453 -6.9269883677947535 0 0 0
356 119 8 0.41 -10.661954060528892 -9.642905442017476 -4.236144661671103 0 0 0
738 246 8 0.41 -9.469934793854605 -8.083725273024443 -7.465850373608092 0 0 0
1970 657 8 0.41 -10.08459275947152 -5.602894842750743 -9.387175258449538 0 0 1
1971 657 8 0.41 -8.957291237687024 -6.419273835199915 -8.555396626154938 0 0 1
736 246 7 -0.82 -9.666024240838805 -9.108406832825947 -7.407075515350353 0 0 0
737 246 8 0.41 -9.999259929105605 -9.49023200513448 -8.30029474340716 0 0 0
2193 731 8 0.41 -14.49071754811542 -6.423435366700515 -2.6534452574720433 0 0 0
1722 574 8 0.41 -12.967211399094296 -7.01024524762266 -10.255572080599825 0 0 1
1721 574 8 0.41 -14.17745475669426 -7.883154645809155 -10.946349061380715 0 0 1
2549 850 8 0.41 -12.625907824868182 -9.903336585999732 -8.620222529375118 0 0 1
2548 850 7 -0.82 -12.739423191361787 -10.306061808394412 -9.564593679357092 0 0 1
2550 850 8 0.41 -13.199799122696259 -9.625485135424885 -10.193246701680458 0 0 1
1642 548 7 -0.82 -11.474276465655915 -4.966905512954133 -9.230864800582816 0 0 0
2107 703 7 -0.82 -8.679583967299706 -6.686304624033248 -7.097227029430037 0 -1 0
2108 703 8 0.41 -9.44970554847335 -6.425787740196962 -6.44423809912882 0 -1 0
2109 703 8 0.41 -7.868819140616939 -6.069412865400699 -6.937003352547878 0 -1 0
692 231 8 0.41 -11.738802040852121 -5.86928718166598 -5.552212894690633 0 0 0
691 231 7 -0.82 -10.846140173238858 -6.324058245568059 -5.424443056131958 0 0 0
693 231 8 0.41 -10.729304072780653 -6.788485081884274 -4.503026302644417 0 0 0
355 119 7 -0.82 -10.088834671755091 -8.869006489939398 -4.531754744443816 0 0 0
357 119 8 0.41 -9.793003093006625 -9.051203418188058 -5.51197483823551 0 0 0
79 27 7 -0.82 -11.292229898602887 -3.6189977735142813 -4.584740651108541 0 0 0
1720 574 7 -0.82 -13.149893752732098 -7.769969422897008 -10.938348280443783 0 0 1
218 73 8 0.41 -7.690615463166662 -7.796395330744325 -3.9487851230003583 0 0 0
217 73 7 -0.82 -7.86245630691106 -6.931752717120265 -3.476521237442782 0 0 0
292 98 7 -0.82 -5.566593840934356 -7.771232199085519 -7.993156291131773 0 0 0
294 98 8 0.41 -5.607795614039542 -8.253932657515612 -8.911328718201684 0 0 0
243 81 8 0.41 -5.387035593885738 -4.963754440504598 -10.093680309482874 0 0 0
2047 683 7 -0.82 -5.340490217657663 -9.31317879602507 -10.13555558128981 0 0 0
2048 683 8 0.41 -5.596875329237054 -10.099585866417405 -10.757723274218048 0 0 0
2049 683 8 0.41 -4.607347243586737 -9.795974718071495 -9.611858664971871 0 0 0
881 294 8 0.41 -6.942598445450262 -8.554288670499538 -10.910268396547742 0 1 0
1782 594 8 0.41 -7.367713165605153 -2.581843144717922 -4.27889003798389 0 0 0
241 81 7 -0.82 -5.396565541194423 -4.992727827608402 -9.061719400465336 0 0 0
242 81 8 0.41 -5.080470058740914 -5.939141074774993 -8.825736467798915 0 0 0
87 29 8 0.41 -7.4088597928638436 10.778289697617152 -6.437640646717069 0 0 0
880 294 7 -0.82 -7.612081147114477 -7.847187157907001 11.029547596592147 0 1 -1
882 294 8 0.41 -8.395073726266059 -7.5312678809849185 -10.686229186762525 0 1 0
1831 611 7 -0.82 -2.6086831619084307 -8.760833335245945 -9.353098705082646 0 1 1
1671 557 8 0.41 -8.461037639303456 -4.317485039330255 -9.145248610491706 0 0 0
1669 557 7 -0.82 -7.670586673712158 -3.66003193537027 -9.112499761954057 0 0 0
293 98 8 0.41 -6.037988300497801 -8.349285269465195 -7.28606619347168 0 0 0
86 29 8 0.41 -7.614213744024209 -9.947589224245814 -7.166865115519945 0 1 0
1832 611 8 0.41 -2.579828423116652 -7.945333765203479 -8.756786875277577 0 1 1
1833 611 8 0.41 -2.976373818118706 -8.625871930181324 -10.315762057446033 0 1 1
204 68 8 0.41 -4.130429376490994 -6.027554883672432 -6.287395751194218 0 0 0
1780 594 7 -0.82 -7.467018932876336 -1.7463746324611868 -3.689188257333597 0 0 0
2673 891 8 0.41 -5.268165445158115 -5.600041145335953 10.029483348275663 0 0 0
2672 891 8 0.41 -4.62223270767657 -4.00546843787685 9.787129477498544 0 0 0
2671 891 7 -0.82 -5.192907408062048 -4.626603389402158 10.385266349976773 0 0 0
81 27 8 0.41 -10.760428085095594 -4.293438284569509 -4.002762239833532 0 0 0
85 29 7 -0.82 -6.967415858012217 -10.651579011437276 -6.81859342346996 0 1 0
1781 594 8 0.41 -8.345479876139883 -1.2438515974198285 -3.7225357472664475 0 0 0
1914 638 8 0.41 -7.37662668616116 -3.360068922263241 -6.1188446245079495 0 -1 0
3010 1004 7 -0.82 -2.835857884474983 -8.204129898344359 10.307171443990002 0 0 0
2711 904 8 0.41 -2.007612708146425 -6.428702853952325 -10.677976896383282 0 0 0
2710 904 7 -0.82 -1.2503809429669417 -5.754109808600365 -10.530719860136738 0 0 0
2712 904 8 0.41 -0.5290212947546351 -6.208476073736477 -9.950132254830867 0 0 0
1357 453 7 -0.82 -0.7260901315496682 -5.612147358161492 -6.002641792999122 0 0 1
1358 453 8 0.41 -0.049170737501647466 -5.6671619144230725 -6.7496315697574865 0 0 1
1847 616 8 0.41 1.0053948385022622 -10.606418817466627 -10.785657712807389 0 0 1
1848 616 8 0.41 2.525410717228411 -9.745975549960878 -10.920916265317802 0 0 1
2833 945 7 -0.82 2.330799036789678 -6.611789470360935 -6.938630214234886 0 0 1
1445 482 8 0.41 1.3636398322064878 -7.298780666647827 -9.842030157589122 0 0 0
1444 482 7 -0.82 0.7011510275188968 -6.906631742747854 -9.137271786203504 0 0 0
559 187 7 -0.82 3.5316782198946797 10.990010247957022 -6.141572583983508 0 -1 0
2058 686 8 0.41 -0.2677534649967015 -2.1938008717165527 -5.6594602299188015 0 0 0
363 121 8 0.41 1.9768730079830377 10.996315615792446 -6.726930446675094 0 -1 0
361 121 7 -0.82 1.134271480976615 10.78333215055702 -7.290596450153623 0 -1 0
362 121 8 0.41 1.4256740235946168 10.788569292363858 -8.272802889925174 0 -1 0
2036 679 8 0.41 -1.1560847716122211 -8.892769639941928 -5.998961539009366 0 1 0
2835 945 8 0.41 2.3286494196984435 -7.436347368861886 -6.326687375406258 0 0 1
2037 679 8 0.41 -0.6274275588992779 -10.525458098988334 -6.1557414081439665 0 1 0
1799 600 8 0.41 2.8661755285935158 -9.843226917071721 -5.815453626890965 0 0 0
2717 906 8 0.41 -1.2257745228136514 -9.856181274372315 -10.31547852928222 0 1 0
2940 980 8 0.41 0.45654054316047876 -3.7521712060982706 9.701254341380372 0 0 0
2834 945 8 0.41 2.6864993967081077 -5.81025289140525 -6.403337765822236 0 0 1
203 68 8 0.41 -2.5707205890486087 -5.752373453882076 -6.046358218753784 0 0 0
3119 1040 8 0.41 -0.4843384434266653 -3.158850045970963 -9.482828792143092 0 0 0
3118 1040 7 -0.82 -0.24146915923203238 -3.4765048261983615 -8.518207087615094 0 0 0
3120 1040 8 0.41 -1.1212943250381215 -3.825780813667527 -8.120222518984663 0 0 0
2716 906 7 -0.82 -0.8422441895765402 -10.70413190846998 -10.787304564383751 0 1 0
2718 906 8 0.41 -1.248541576768396 -10.446813011555411 10.57487003482735 0 1 -1
2035 679 7 -0.82 -1.3963935835049028 -9.87800777905559 -5.958494877773061 0 1 0
561 187 8 0.41 4.112886931835909 10.301480323413186 -5.649677730049022 0 -1 0
1798 600 7 -0.82 2.646468649249293 -8.88209910672306 -5.516066416659959 0 0 0
461 154 8 0.41 -2.1506654986291878 -9.210845506833945 -3.0996575057840356 0 1 0
1446 482 8 0.41 1.1686428221595975 -7.011507274779667 -8.235027557821095 0 0 0
560 187 8 0.41 4.18444315163994 -10.622933975412284 -6.58894056490491 0 0 0
1506 502 8 0.41 5.663106709733846 -7.9634049253754275 11.12495785283467 0 0 -1
1504 502 7 -0.82 6.232371274772092 -7.739812044944223 10.31182406897956 0 0 -1
2963 988 8 0.41 5.176137489760748 -8.36659648420358 -6.5378586082716295 0 0 0
2962 988 7 -0.82 4.841664085444876 -8.776756639898426 -7.407607553591088 0 0 0
2964 988 8 0.41 3.8435007153163525 -8.602029933218837 -7.289524100517343 0 0 0
2557 853 7 -0.82 5.9917465727670915 11.094668703684244 -7.591699140814772 0 -1 0
2558 853 8 0.41 5.824059141543188 10.644280543831426 -8.514602492772529 0 -1 0
2559 853 8 0.41 5.65041320090841 -10.23030722098943 -7.681484901114735 0 0 0
1596 532 8 0.41 7.176529320361375 -10.96190835490975 -4.734470011118733 0 0 0
265 89 7 -0.82 9.83392261974302 -6.582590935513245 -8.795419712428785 0 1 0
266 89 8 0.41 9.576699751801172 -7.182924419075195 -9.582111830426276 0 1 0
450 150 8 0.41 6.233726635031566 9.32289159517597 -5.241124383244545 0 -1 0
448 150 7 -0.82 5.2383179364776 9.09577560047566 -5.094697314816063 0 -1 0
479 160 8 0.41 2.179889421549319 -3.72634257441546 -6.0246934285731015 0 0 0
478 160 7 -0.82 3.0377401501887746 -4.15449115265493 -5.665801005144568 0 0 0
480 160 8 0.41 3.076307903246196 -3.66560260905701 -4.776128037771624 0 0 0
109 37 7 -0.82 7.165836154983985 -4.721958580598404 9.960524594327774 0 0 -1
3145 1049 7 -0.82 5.967753882875272 -4.718569470961542 -9.456142172227292 0 0 0
3146 1049 8 0.41 6.957834573286561 -4.728423045500686 -9.699290879110995 0 0 0
2906 969 8 0.41 8.695360341999574 -6.321850681779132 -7.257448549174887 0 0 1
2648 883 8 0.41 7.367246704103145 10.649306203907335 -6.3775279634501745 0 -1 0
2647 883 7 -0.82 7.921843599368714 10.09068044905433 -5.721920679689313 0 -1 0
2649 883 8 0.41 8.858332857939011 9.95977022200846 -6.102226940009411 0 -1 0
267 89 8 0.41 9.98373137235447 -5.590079954780235 -9.028692328897193 0 1 0
2907 969 8 0.41 7.300442085893522 -6.21240932816492 -6.517061138081251 0 0 1
2905 969 7 -0.82 8.253003407181346 -6.54005061894887 -6.365681684426739 0 0 1
110 37 8 0.41 6.9590284718150315 -5.59436372484846 10.445760412194018 0 0 -1
3053 1018 8 0.41 10.63968073697125 -7.737243221549171 -7.730377074156383 0 0 0
135 45 8 0.41 12.48953933434067 -7.468882108933025 -6.532371287647879 0 0 0
133 45 7 -0.82 13.273529619709521 -7.0122701170230135 -6.082342060166731 0 0 0
134 45 8 0.41 13.84754783168443 -6.585183188210247 -6.8298925620762905 0 0 0
2120 707 8 0.41 10.829674750633544 -11.04600802740643 -7.6902025416583575 0 0 0
617 206 8 0.41 14.298342250341783 -7.658330134909247 -5.0082809559195045 0 0 1
2119 707 7 -0.82 11.514067059818153 -10.970008085218558 -6.947773114455219 0 0 0
3054 1018 8 0.41 10.016062159449149 -7.527507459008364 -6.319614574098809 0 0 0
3052 1018 7 -0.82 10.683799788737026 -8.149767408716926 -6.780036035474917 0 0 0
915 305 8 0.41 15.27237807315565 -6.122333626073534 -8.103186438346576 0 0 0
1347 449 8 0.41 14.52109197333128 -4.472328274093495 -7.558432269635388 0 0 0
2856 952 8 0.41 10.282134882479461 -5.155509280930101 -4.748158918365915 0 0 0
1346 449 8 0.41 14.00707445955205 -4.926655356195591 -9.112457565851983 0 0 0
1345 449 7 -0.82 13.818278357492389 -4.984704864204336 -8.09819124040092 0 0 0
1257 419 8 0.41 13.447850366378297 -9.068833247561331 -10.039349722020045 0 1 0
2121 707 8 0.41 11.496192492035156 -9.997822928631944 -6.602380681506255 0 0 0
2854 952 7 -0.82 11.167282575200332 -4.924073743294783 -5.221134490317449 0 0 0
2855 952 8 0.41 11.955384704895195 -5.5497829369381915 -4.912093344175549 0 0 0
3025 1009 7 -0.82 11.215296410894624 -2.4540538510948107 -3.8880074956895774 0 0 0
3026 1009 8 0.41 10.980310067738742 -3.1979617688602646 -3.2145869720943416 0 0 0
2508 836 8 0.41 13.799067867265059 -2.5984176572454913 -11.059891872276006 0 0 0
616 206 7 -0.82 14.839509843350065 -8.099777628093861 -4.251418879248425 0 0 1
618 206 8 0.41 15.127127681401369 -9.052984308638734 -4.554345054356195 0 0 1
2920 974 7 -0.82 14.345066884644176 -5.152733257966018 -10.8207320544336 0 0 1
914 305 8 0.41 15.303353371271967 -7.443623474386404 -8.994004739528577 0 0 0
2506 836 7 -0.82 13.591755297874357 -2.0567049458809024 -10.205585086328208 0 0 0
2507 836 8 0.41 14.01750034992645 -1.1334829457568443 -10.297143176798293 0 0 0
1255 419 7 -0.82 14.442142423920103 -8.981547555923804 -9.778991587151872 0 1 0
640 214 7 -0.82 15.019831106048613 -10.778680006319547 -4.853025135362661 0 1 0
641 214 8 0.41 14.554908195277406 11.092384815266103 -5.6734020986662 0 0 0
913 305 7 -0.82 15.912804395321004 -6.858444704670284 -8.395776307780187 0 0 0
3027 1009 8 0.41 11.58366339798922 -2.963317993789227 -4.686599731214389 0 0 0
288 96 8 0.41 17.351918812449796 -6.621077874451165 -9.159361577893453 0 0 1
287 96 8 0.41 18.895625678838584 -7.047690426614117 -9.554159892043135 0 0 1
286 96 7 -0.82 18.076625571636086 -6.525662059729744 -9.900570894507625 0 0 1
1325 442 8 0.41 18.52729904816843 -8.662538260523919 -5.989613983655213 0 0 0
1324 442 7 -0.82 18.528151335965617 -7.698498472136446 -6.335357077940895 0 0 0
2175 725 8 0.41 18.598445408083208 -5.090180509728177 -6.190770972449518 0 1 0
2173 725 7 -0.82 18.194854761427344 -4.149552946450843 -6.067612795281118 0 1 0
1326 442 8 0.41 17.874740743352042 -7.357204899335471 -7.063906846404549 0 0 0
1609 537 7 -0.82 18.230473081021486 -10.62583793684973 -5.91864866557488 0 1 0
3105 1035 8 0.41 22.06804452611135 -7.056170784441221 -7.313958209000782 0 0 1
3103 1035 7 -0.82 22.224169059716417 -7.380692836121432 -8.295114647587736 0 0 1
1888 630 7 -0.82 20.179272949026213 -8.445018846687196 -9.69781422883753 0 0 0
1890 630 8 0.41 19.589607742180384 -9.268800773080635 -9.511171194158234 0 0 0
3104 1035 8 0.41 21.28962067213341 -7.5789360188336 -8.674871677137366 0 0 1
2174 725 8 0.41 18.815603522871022 -3.5101291103265977 -5.528958528101289 0 1 0
702 234 8 0.41 20.244473757861307 -7.40203539414019 -5.869412289851602 0 0 0
2161 721 7 -0.82 17.952366917919747 -10.03767552620769 -8.78987493941072 0 1 0
1447 483 7 -0.82 20.688199217498422 -10.979213927288313 -10.970581877567973 0 1 0
1448 483 8 0.41 20.596742129123186 10.475277885818352 -10.360390629303964 0 0 0
1889 630 8 0.41 20.452392089733756 -8.70625784319407 -10.667971827084413 0 0 0
2162 721 8 0.41 18.062595742068076 -10.445342175349435 -7.865893479485999 0 1 0
2372 791 8 0.41 19.30004623200876 10.481759574978652 -5.347957162006882 0 -1 1
2821 941 7 -0.82 26.057293581198813 -1.1074673163658044 10.771627882014874 0 0 -1
1611 537 8 0.41 18.429123028501962 -10.400137520783593 -4.93215631718637 0 1 0
2163 721 8 0.41 17.222875184708798 -10.569592692425301 -9.244910155066224 0 1 0
3144 1048 8 0.41 22.82632985696722 -5.44128372128493 -4.943332152371011 0 0 1
701 234 8 0.41 21.485348539476895 -7.508762402549845 -4.781027720567089 0 0 0
700 234 7 -0.82 21.19773725516483 -7.065498366136862 -5.666077207159057 0 0 0
1610 537 8 0.41 17.297034907712543 -11.049086986495775 -6.002444959243866 0 1 0
3143 1048 8 0.41 23.08848496998582 -4.336427147562086 -6.2296274301180725 0 0 1
3142 1048 7 -0.82 23.511645129666363 -4.9577528778640385 -5.550205744565969 0 0 1
1185 395 8 0.41 24.06872306210606 -7.014452732412221 -9.569667307739556 0 0 1
178 60 7 -0.82 28.28096176206879 -6.779907455711289 -7.524266430217059 0 1 0
180 60 8 0.41 27.870285365870494 -5.91716114703199 -7.1484303714290895 0 1 0
2081 694 8 0.41 22.893428856908123 -10.683777624692102 -9.957318924839377 0 1 1
1662 554 8 0.41 25.522227296465054 -4.652986101375435 -7.275389469068326 0 0 1
1660 554 7 -0.82 26.103441945868695 -4.6115118939695385 -8.11614418604105 0 0 1
1661 554 8 0.41 25.926807458410202 -5.42077978462839 -8.713866449124978 0 0 1
1569 523 8 0.41 23.349606199678917 -8.67931568273963 -8.170221457212403 -1 1 0
112 38 7 -0.82 27.20697078094863 -8.634656329019268 9.64214152206378 0 1 -1
113 38 8 0.41 27.497262266723233 -9.53897186675864 10.0282743461299 0 1 -1
1568 523 8 0.41 24.205820366878193 -9.857019186876528 -8.79007167690395 -1 1 0
1567 523 7 -0.82 24.2904953632124 -9.103813232045887 -8.093019358407298 -1 1 0
2080 694 7 -0.82 23.87475860441183 -10.598178856775156 -10.209703796988656 0 1 1
2082 694 8 0.41 23.91014796014595 -10.134509683194679 -11.139825898173791 0 1 1
2126 709 8 0.41 22.7846234991814 -10.017241340665734 -4.3913115076825715 0 1 0
3112 1038 7 -0.82 22.536279751902093 -3.258552429876235 -9.06409600754337 0 0 0
3114 1038 8 0.41 23.55215161078729 -3.0045494953881757 -8.90081411247339 0 0 0
1458 486 8 0.41 24.120272986943263 9.83627860002123 -9.815037830604394 0 -1 0
2282 761 8 0.41 24.258018037625455 -9.155784738859877 -6.475250428076602 0 1 0
2281 761 7 -0.82 24.26416725255214 -9.168088908076864 -5.436354144309447 0 1 0
1183 395 7 -0.82 24.314078269052835 -6.409471947791016 -10.372478046223959 0 0 1
1184 395 8 0.41 23.781618829818733 -5.535464272025631 -10.295288523094055 0 0 1
179 60 8 0.41 29.270421313617085 -6.537568384214354 -7.61821773412812 0 1 0
894 298 8 0.41 24.992953739881337 -5.156972472883966 -4.973424294628678 0 0 0
893 298 8 0.41 26.627368955525135 -4.779116733769079 -4.690493774260774 0 0 0
892 298 7 -0.82 25.8429861733189 -5.388161837276565 -4.40957771149109 0 0 0
1449 483 8 0.41 20.537156909276526 11.01990788537446 10.363035719429933 0 0 -1
1999 667 7 -0.82 25.16032384498537 9.43795197120407 9.447742053691998 0 0 0
678 226 8 0.41 25.446186791071632 -7.9293664296186765 9.15035887263281 0 0 0
779 260 8 0.41 -32.8958657170984 -1.1102864480869457 -2.0694197887329153 0 1 0
2236 746 7 -0.82 31.42681064162496 -5.681718767455718 -4.653897404939505 0 0 0
31 11 7 -0.82 28.168141986060476 -3.686188385353013 -4.555759422951516 -1 0 0
2576 859 8 0.41 31.67765318999617 -6.545471599488867 -7.623484777861453 0 0 0
2577 859 8 0.41 31.1201446933296 -5.894329019109563 -9.102565016353017 0 0 0
2575 859 7 -0.82 30.984281177330566 -5.9333351507608905 -8.08474124696179 0 0 0
1501 501 7 -0.82 32.474313492484264 -7.396185477750269 -6.4481146360687305 -1 1 1
1503 501 8 0.41 31.85580934815672 -8.20041905867643 -6.1735595412210715 -1 1 1
2500 834 7 -0.82 26.155715831205526 -3.5607087837272093 -10.57487290524766 0 0 1
2502 834 8 0.41 26.55651220081699 -4.324932093492653 -11.118107461359351 0 0 1
33 11 8 0.41 28.8233496623537 -4.294626444741914 -4.0850360698336825 -1 0 0
952 318 7 -0.82 27.114219045522262 -9.027515629548326 -8.32024629152907 0 1 0
953 318 8 0.41 27.655158499436226 -8.190811394039992 -8.001149681857434 0 1 0
1502 501 8 0.41 33.263022817888135 -7.703064809596568 -7.037875188819797 -1 1 1
954 318 8 0.41 26.141829849846907 -8.696037928006474 -8.243206516354803 0 1 0
32 11 8 0.41 28.54182177417089 -3.498034780109305 -5.503001765372074 -1 0 0
2657 886 8 0.41 28.04850220047495 -2.9132233315283553 -9.829005746229443 -1 0 0
2501 834 8 0.41 25.920047798932565 -3.769986653295005 -9.58412864078985 0 0 1
2780 927 8 0.41 32.711325774551106 -8.620419813198144 -10.680069378614382 0 1 1
3149 1050 8 0.41 30.920967489133524 -10.075856908540056 -9.758725786176065 0 1 1
599 200 8 0.41 30.66465436723552 -9.671826546284644 -4.6266046673699295 -1 1 0
598 200 7 -0.82 30.792034372819977 -9.540633732502908 -3.613745382246405 -1 1 0
1950 650 8 0.41 29.454889996149433 10.857440979340785 -8.11978390256742 0 0 0
941 314 8 0.41 31.616126795952546 -10.364910044125052 -6.122810895374722 -1 1 0
940 314 7 -0.82 30.959502642424674 -9.584189120608679 -6.213854024347486 -1 1 0
1948 650 7 -0.82 29.848131697244312 -10.507551267713414 -8.349224296381824 0 1 0
1949 650 8 0.41 29.018107178835642 -9.956592293290546 -8.513077480032038 0 1 0
1634 545 8 0.41 26.842461552996177 -7.078794755978649 -4.817005895477571 -1 0 0
1633 545 7 -0.82 27.154757900537 -8.019297485728947 -4.577108772611089 -1 0 0
1635 545 8 0.41 28.037195141168397 -7.877034710323533 -4.084359373597857 -1 0 0
3150 1050 8 0.41 32.22971922675173 -10.907417132326968 -10.515898065997755 0 1 1
3148 1050 7 -0.82 31.654123365388024 -10.065878937693215 -10.451949160859389 0 1 1
709 237 7 -0.82 -28.436257609302274 -0.6867645715593724 -9.382880311991238 0 0 0
710 237 8 0.41 -29.44847940982823 -0.4974007366934874 -9.279034932302872 0 0 0
2861 954 8 0.41 -32.35415666563178 -3.6148909172158046 9.892727108970883 0 0 -1
2825 942 8 0.41 -31.035334667542937 -2.1564340591105413 -6.32191843259964 1 0 0
2824 942 7 -0.82 -31.828002085954182 -2.163497975469163 -6.986372107779976 1 0 0
2826 942 8 0.41 -31.821759950273304 -3.03934434861846 -7.5113674067491125 1 0 0
2952 984 8 0.41 -32.76552467495978 -0.9639796026334704 -6.748438567517639 1 0 0
2950 984 7 -0.82 -33.24736246354307 -0.05149745205387646 -6.515494049220069 1 0 0
595 199 7 -0.82 -29.44378841218378 3.254147460479036 -9.731283929046402 0 0 0
2869 957 7 -0.82 -31.318201607403942 -0.671819622049032 -9.401397177964851 1 0 0
2871 957 8 0.41 -31.923869781231815 0.1348824557213426 -9.14763308102823 1 0 0
2870 957 8 0.41 -31.54854767444774 -1.4651373317876253 -8.776838940495608 1 0 0
2320 774 7 -0.82 -30.000537663223998 -2.172174821185477 -4.594049916760927 0 0 0