LAMMPS data file via write_data, version 27 Jun 2024, timestep = 30000, units = real

3362 atoms
12 atom types
3816 bonds
14 bond types
7002 angles
27 angle types
11450 dihedrals
34 dihedral types
1868 impropers
6 improper types

7.433708023992143 40.566291976007264 xlo xhi
10.433708023992143 43.566291976007264 ylo yhi
10.433708023992143 43.566291976007264 zlo zhi

Atom Type Labels

1 c2
2 c_1
3 o
4 hc
5 ho
6 o_1
7 na
8 hn
9 n
10 hw
11 o*
12 cp

Bond Type Labels

1 c2-hc
2 c2-c2
3 c_1-o
4 c2-c_1
5 c_1-o_1
6 o-ho
7 na-c2
8 na-hn
9 n-c2
10 n-hn
11 n-c_1
12 c2-na
13 hw-o*
14 cp-cp

Angle Type Labels

1 hc-c2-hc
2 c2-c2-hc
3 c2-c2-c2
4 c2-c_1-o_1
5 o-c_1-o_1
6 c2-c_1-o
7 c_1-o-ho
8 c2-c2-c_1
9 c_1-c2-hc
10 c2-c2-na
11 na-c2-hc
12 c2-na-hn
13 hn-na-hn
14 c2-n-hn
15 c2-n-c_1
16 hn-n-hn
17 hn-n-c_1
18 n-c2-c2
19 n-c2-hc
20 hc-c2-c_1
21 n-c_1-c2
22 o_1-c_1-o
23 n-c_1-o_1
24 n-c_1-o
25 na-c2-c2
26 hw-o*-hw
27 cp-cp-cp

Dihedral Type Labels

1 c_1-c2-c2-hc
2 hc-c2-c2-hc
3 c2-c2-c2-c_1
4 c2-c2-c2-hc
5 c2-c2-c2-c2
6 c2-c_1-o-ho
7 o_1-c_1-o-ho
8 c2-c2-c_1-o
9 hc-c2-c_1-o
10 c2-c2-c_1-o_1
11 hc-c2-c_1-o_1
12 na-c2-c2-hc
13 c2-c2-c2-na
14 c2-c2-na-hn
15 hn-na-c2-hc
16 hn-n-c2-c2
17 hn-n-c2-hc
18 c_1-n-c2-c2
19 c_1-n-c2-hc
20 c2-n-c_1-c2
21 c2-n-c_1-o_1
22 c2-n-c_1-o
23 hn-n-c_1-c2
24 hn-n-c_1-o_1
25 hn-n-c_1-o
26 n-c2-c2-c2
27 n-c2-c2-hc
28 c2-c2-c_1-n
29 hc-c2-c_1-n
30 n-c_1-o-ho
31 hn-na-c2-c2
32 hc-c2-na-hn
33 na-c2-c2-c2
34 cp-cp-cp-cp

Improper Type Labels

1 c2-c_1-o-o_1
2 c2-na-hn-hn
3 c2-c_1-o_1-o
4 c2-n-hn-c_1
5 n-c_1-c2-o_1
6 cp-cp-cp-cp

Masses

1 12.0112
2 12.0112
3 15.9994
4 1.00797
5 1.00797
6 15.9994
7 14.0067
8 1.00797
9 14.0067
10 1.00797
11 15.9994
12 12.0112

Pair Coeffs # lj/class2/coul/long/omp

1 0.054 4.01
2 0.12 3.81
3 0.24 3.535
4 0.02 2.7
5 0.013 1.098
6 0.267 3.3
7 0.065 4.07
8 0.013 1.098
9 0.106 4.07
10 0.013 1.098
11 0.26 3.61
12 0.064 4.01

Bond Coeffs # class2/omp

1 1.101 345 -691.89 844.6
2 1.53 299.67 -501.77 679.81
3 1.3649 368.731 -832.478 1274.02
4 1.5202 253.707 -423.037 396.9
5 1.202 851.14 -1918.49 2160.77
6 0.965 532.506 -1282.9 2004.77
7 1.457 365.805 -699.637 998.484
8 1.006 466.74 -1073.6 1251.11
9 1.452 327.166 -547.899 526.5
10 1.01 462.75 -1053.63 1545.76
11 1.416 359.159 -558.473 1146.38
12 1.457 365.805 -699.637 998.484
13 0.97 563.28 -1428.22 1902.12
14 1.417 470.836 -627.618 1327.63

Angle Coeffs # class2/omp

1 107.66 39.641 -12.921 -2.4318
2 110.77 41.453 -10.604 5.129
3 112.67 39.516 -7.443 -9.5583
4 123.145 55.5431 -17.2123 0.1348
5 118.986 98.6813 -22.2485 10.3673
6 123.145 55.5431 -17.2123 0.1348
7 111.254 53.5303 -11.8454 -11.5405
8 108.53 51.9747 -9.4851 -10.9985
9 107.734 40.6099 -28.8121 0
10 111.91 60.7147 -13.3366 -13.0785
11 110.62 51.3137 -6.7198 -2.6003
12 110.954 50.8652 -4.4522 -10.0298
13 107.067 45.252 -7.5558 -9.512
14 113.868 45.9271 -20.0824 0
15 111.037 31.8958 -6.6942 -6.837
16 116.94 37.5749 -8.6676 0
17 117.961 37.4964 -8.1837 0
18 114.302 42.6589 -10.5464 -9.3243
19 108.937 57.401 2.9374 0
20 107.734 40.6099 -28.8121 0
21 116.926 39.4193 -10.9945 -8.7733
22 118.986 98.6813 -22.2485 10.3673
23 125.542 92.572 -34.48 -11.1871
24 125.542 92.572 -34.48 -11.1871
25 111.91 60.7147 -13.3366 -13.0785
26 103.7 49.84 -11.6 -8
27 118.9 61.0226 -34.9931 0

BondBond Coeffs

1 5.3316 1.101 1.101
2 3.3872 1.53 1.101
3 0 1.53 1.53
4 0 1.5202 1.3649
5 0 1.3649 1.202
6 46.0685 1.5202 1.202
7 0 1.3649 0.965
8 5.4199 1.53 1.5202
9 0.7115 1.5202 1.101
10 4.6217 1.53 1.457
11 12.426 1.457 1.101
12 -6.4168 1.457 1.006
13 -1.8749 1.006 1.006
14 -3.471 1.452 1.01
15 12.1186 1.452 1.416
16 -0.5655 1.01 1.01
17 -4.3126 1.01 1.416
18 3.5446 1.452 1.53
19 15.2994 1.452 1.101
20 0.7115 1.101 1.5202
21 0 1.416 1.5202
22 0 1.202 1.3649
23 138.495 1.416 1.202
24 0 1.416 1.3649
25 4.6217 1.457 1.53
26 -9.5 0.97 0.97
27 68.2856 1.417 1.417

BondAngle Coeffs

1 18.103 18.103 1.101 1.101
2 20.754 11.421 1.53 1.101
3 8.016 8.016 1.53 1.53
4 0 0 1.5202 1.3649
5 0 0 1.3649 1.202
6 34.9982 37.1298 1.5202 1.202
7 0 0 1.3649 0.965
8 18.1678 15.8758 1.53 1.5202
9 12.4632 9.1765 1.5202 1.101
10 6.0876 16.5702 1.53 1.457
11 42.4332 13.4582 1.457 1.101
12 31.8096 20.5799 1.457 1.006
13 28.0322 28.0322 1.006 1.006
14 11.8828 5.9339 1.452 1.01
15 3.7812 14.8633 1.452 1.416
16 19.8125 19.8125 1.01 1.01
17 10.8422 29.5743 1.01 1.416
18 4.6031 -5.479 1.452 1.53
19 34.8907 10.6917 1.452 1.101
20 9.1765 12.4632 1.101 1.5202
21 0 0 1.416 1.5202
22 0 0 1.202 1.3649
23 62.7124 52.4045 1.416 1.202
24 0 0 1.416 1.3649
25 16.5702 6.0876 1.457 1.53
26 22.35 22.35 0.97 0.97
27 28.8708 28.8708 1.417 1.417

Dihedral Coeffs # class2/omp

1 -0.0228 0 0.028 0 -0.1863 0
2 -0.1432 0 0.0617 0 -0.1083 0
3 0.0972 0 0.0722 0 -0.2581 0
4 0 0 0.0316 0 -0.1681 0
5 0 0 0.0514 0 -0.143 0
6 0 0 0 0 0 0
7 -2.7332 0 2.9646 0 -0.0155 0
8 0 0 0 0 0 0
9 0 0 0 0 0 0
10 0.0442 0 0.0292 0 0.0562 0
11 -0.1804 0 0.0012 0 0.0371 0
12 -0.2428 0 0.4065 0 -0.3079 0
13 0.1764 0 0.1766 0 -0.5206 0
14 -1.1506 0 -0.6344 0 -0.1845 0
15 -0.5187 0 -0.4837 0 -0.1692 0
16 -0.0483 0 -0.0077 0 -0.0014 0
17 -0.0148 0 -0.0791 0 -0.0148 0
18 0.0143 0 -0.0132 0 0.0091 0
19 0.0219 0 -0.026 0 0.0714 0
20 -0.7532 0 2.7392 0 0.0907 0
21 0.8297 0 3.7234 0 -0.0495 0
22 0 0 0 0 0 0
23 0 0 0 0 0 0
24 -1.6938 0 2.7386 0 -0.336 0
25 0 0 0 0 0 0
26 0.0972 0 0.0722 0 -0.2581 0
27 -0.0228 0 0.028 0 -0.1863 0
28 0.1693 0 -0.009 0 -0.0687 0
29 0.1693 0 -0.009 0 -0.0687 0
30 0 0 0 0 0 0
31 -1.1506 0 -0.6344 0 -0.1845 0
32 -0.5187 0 -0.4837 0 -0.1692 0
33 0.1764 0 0.1766 0 -0.5206 0
34 8.3667 0 1.1932 0 0 0

AngleAngleTorsion Coeffs

1 -5.3624 108.53 110.77
2 -12.564 110.77 110.77
3 -0.3801 112.67 108.53
4 -16.164 112.67 110.77
5 -22.045 112.67 112.67
6 0 0 111.254
7 0 118.985 111.254
8 0 108.53 0
9 0 107.734 0
10 -8.019 108.53 123.145
11 -15.3496 107.734 123.145
12 -15.7572 111.91 110.77
13 -27.3953 112.67 111.91
14 -7.5499 111.91 110.954
15 -10.4258 110.62 110.954
16 -4.6337 113.868 114.302
17 -6.659 113.868 108.937
18 -7.4314 111.037 114.302
19 -8.1335 111.037 108.937
20 -6.5335 111.037 116.926
21 -15.5547 111.037 125.542
22 0 111.037 0
23 -1.3234 117.961 116.926
24 -7.3186 117.961 125.542
25 0 117.961 0
26 -1.0631 114.302 112.67
27 -12.7974 114.302 110.77
28 -5.4514 108.53 116.926
29 -12.2417 107.734 116.926
30 0 0 111.254
31 -7.5499 110.954 111.91
32 -10.4258 110.954 110.62
33 -27.3953 111.91 112.67
34 0 118.9 118.9

EndBondTorsion Coeffs

1 -0.0204 0.3628 -0.4426 -0.0097 -0.0315 -0.0755 1.5202 1.101
2 0.213 0.312 0.0777 0.213 0.312 0.0777 1.101 1.101
3 0.0062 -0.0002 0.0036 0.0055 0.006 -0.0009 1.53 1.5202
4 0.2486 0.2422 -0.0925 0.0814 0.0591 0.2219 1.53 1.101
5 -0.0732 0 0 -0.0732 0 0 1.53 1.53
6 0 0 0 0 0 0 1.5202 0.965
7 0 0 0 0 0 0 1.202 0.965
8 0 0 0 0 0 0 1.53 1.3649
9 0 0 0 0 0 0 1.101 1.3649
10 0.2654 0.0503 0.1046 -0.281 0.0816 -0.1522 1.53 1.202
11 1.2143 0.2831 0.3916 -0.2298 0.0354 0.3853 1.101 1.202
12 0.1022 0.209 0.6433 0.196 0.7056 0.112 1.457 1.101
13 0.1032 0.5896 -0.4836 0.0579 -0.0043 -0.1906 1.53 1.457
14 -0.9466 0.9356 -0.5542 0.057 0.0625 0.4112 1.53 1.006
15 -1.1685 0.9266 -0.0993 0.085 0.3061 0.2104 1.101 1.006
16 -0.0992 -0.0727 -0.4139 0.132 0.0015 0.1324 1.01 1.53
17 -0.4894 0.1644 0.3105 -0.8983 0.2826 0.0881 1.01 1.101
18 -0.1245 -0.9369 0.7781 -0.2033 0.0035 0.056 1.416 1.53
19 0.2292 1.1732 -0.058 -0.3667 0.8197 0.1335 1.416 1.101
20 0.2299 -0.1141 -0.1424 0.0933 -0.4631 0.2883 1.452 1.5202
21 0.1598 0.7253 -0.1007 0.1226 -2.1326 0.5581 1.452 1.202
22 0 0 0 0 0 0 1.452 1.3649
23 0.6413 0.1676 0.144 -0.6979 0.5619 0.4212 1.01 1.5202
24 0.1214 0.1936 0.0816 -0.7604 -2.6431 1.2467 1.01 1.202
25 0 0 0 0 0 0 1.01 1.3649
26 -0.0797 -0.0406 0.0255 0.0742 0.0105 0.0518 1.452 1.53
27 0.3022 0.2513 0.4641 -0.0601 -0.3763 -0.1876 1.452 1.101
28 -0.2631 -0.0076 -0.1145 -0.2751 -0.3058 -0.1767 1.53 1.416
29 -0.0268 0.7836 0.0035 0.3552 -0.2685 0.5834 1.101 1.416
30 0 0 0 0 0 0 1.416 0.965
31 0.057 0.0625 0.4112 -0.9466 0.9356 -0.5542 1.006 1.53
32 0.085 0.3061 0.2104 -1.1685 0.9266 -0.0993 1.006 1.101
33 0.0579 -0.0043 -0.1906 0.1032 0.5896 -0.4836 1.457 1.53
34 -0.1185 6.3204 0 -0.1185 6.3204 0 1.417 1.417

MiddleBondTorsion Coeffs

1 -3.5039 1.2458 -0.761 1.53
2 -14.261 -0.5322 -0.4864 1.53
3 -1.5945 0.2267 -0.6911 1.53
4 -14.879 -3.6581 -0.3138 1.53
5 -17.787 -7.1877 0 1.53
6 0 0 0 1.3649
7 0 0 0 1.3649
8 0 0 0 1.5202
9 0 0 0 1.5202
10 0.3388 -0.1096 0.1219 1.5202
11 0.2359 0.9139 0.9594 1.5202
12 -10.4959 -0.7647 -0.0545 1.53
13 -15.4174 -7.3055 -1.0749 1.53
14 -2.2208 0.5479 -0.3527 1.457
15 -3.4611 1.6996 -0.6007 1.457
16 -3.5406 -3.3866 0.0352 1.452
17 -1.1752 2.8058 0.8083 1.452
18 -3.9501 -0.4002 -0.6798 1.452
19 -0.6899 -2.2646 1.1579 1.452
20 0 0 0 1.416
21 -8.8301 14.3079 -1.7716 1.416
22 0 0 0 1.416
23 0 0 0 1.416
24 -0.9084 6.1447 -0.4852 1.416
25 0 0 0 1.416
26 -4.2324 -3.3023 -1.3244 1.53
27 -4.1028 -0.5941 -0.047 1.53
28 0 0 0 1.5202
29 0 0 0 1.5202
30 0 0 0 1.3649
31 -2.2208 0.5479 -0.3527 1.457
32 -3.4611 1.6996 -0.6007 1.457
33 -15.4174 -7.3055 -1.0749 1.53
34 27.5989 -2.312 0 1.417

BondBond13 Coeffs

1 0 1.5202 1.101
2 0 1.101 1.101
3 0 1.53 1.5202
4 0 1.53 1.101
5 0 1.53 1.53
6 0 1.5202 0.965
7 0 1.202 0.965
8 0 1.53 1.3649
9 0 1.101 1.3649
10 0 1.53 1.202
11 0 1.101 1.202
12 0 1.457 1.101
13 0 1.53 1.457
14 0 1.53 1.006
15 0 1.101 1.006
16 0 1.01 1.53
17 0 1.01 1.101
18 0 1.416 1.53
19 0 1.416 1.101
20 0 1.452 1.5202
21 0 1.452 1.202
22 0 1.452 1.3649
23 0 1.01 1.5202
24 0 1.01 1.202
25 0 1.01 1.3649
26 0 1.452 1.53
27 0 1.452 1.101
28 0 1.53 1.416
29 0 1.101 1.416
30 0 1.416 0.965
31 0 1.006 1.53
32 0 1.006 1.101
33 0 1.457 1.53
34 53 1.417 1.417

AngleTorsion Coeffs

1 -0.7466 -0.9448 -0.6321 0.0162 1.4211 -1.4092 108.53 110.77
2 -0.8085 0.5569 -0.2466 -0.8085 0.5569 -0.2466 110.77 110.77
3 -0.2607 0.3203 -0.2283 0.0515 -0.0674 -0.0474 112.67 108.53
4 -0.2454 0 -0.1136 0.3113 0.4516 -0.1988 112.67 110.77
5 0.3886 -0.3139 0.1389 0.3886 -0.3139 0.1389 112.67 112.67
6 0 0 0 0 0 0 0 111.254
7 0 0 0 0 0 0 118.985 111.254
8 0 0 0 0 0 0 108.53 0
9 0 0 0 0 0 0 107.734 0
10 0.0885 -1.3703 -0.5452 0.675 0.5965 0.6725 108.53 123.145
11 9.1299 -0.4847 0.3582 -1.4946 0.7308 -0.2083 107.734 123.145
12 -1.1075 0.282 0.8318 0.5111 1.6328 -1.0155 111.91 110.77
13 -1.9225 -1.345 0.221 2.0125 0.944 -2.7612 112.67 111.91
14 -3.343 4.4558 -0.0346 0.2873 -0.8072 -0.096 111.91 110.954
15 -3.9582 2.0063 0.3213 -0.4294 -0.4442 -0.6141 110.62 110.954
16 -0.5807 0.2041 -0.1384 -2.8967 2.7084 -0.0375 113.868 114.302
17 -0.3868 0.2041 0.0445 -3.7022 1.3876 0.2393 113.868 108.937
18 -1.523 1.1296 0.7167 -0.7555 0.0564 1.2177 111.037 114.302
19 0.0372 -0.3418 -0.0775 -1.5157 2.0781 0.5364 111.037 108.937
20 5.916 1.7856 0.4052 4.2133 2.9302 3.2903 111.037 116.926
21 7.4427 2.1505 -0.2206 4.4466 4.0317 1.7129 111.037 125.542
22 0 0 0 0 0 0 111.037 0
23 1.9306 0.2105 0.0557 -2.2134 1.2909 0.9726 117.961 116.926
24 2.3848 0.703 0.1399 -2.6238 0.3606 0.5474 117.961 125.542
25 0 0 0 0 0 0 117.961 0
26 0.2039 0.1602 -0.7946 -0.5501 -1.6982 0.2485 114.302 112.67
27 -1.982 0.2325 -0.3928 -1.2469 1.6933 -1.2081 114.302 110.77
28 2.1802 -0.0335 -1.3816 2.1221 0.5032 -0.0767 108.53 116.926
29 7.095 0.0075 0.691 2.0013 0.5068 0.8406 107.734 116.926
30 0 0 0 0 0 0 0 111.254
31 0.2873 -0.8072 -0.096 -3.343 4.4558 -0.0346 110.954 111.91
32 -0.4294 -0.4442 -0.6141 -3.9582 2.0063 0.3213 110.954 110.62
33 2.0125 0.944 -2.7612 -1.9225 -1.345 0.221 111.91 112.67
34 1.9767 1.0239 0 1.9767 1.0239 0 118.9 118.9

Improper Coeffs # class2/omp

1 0 0
2 0 0
3 0 0
4 0 0
5 24.3329 0
6 7.1794 0

AngleAngle Coeffs

1 0 0 0 0 118.985 123.145
2 0.2738 -0.4825 0.2738 110.77 107.66 110.77
3 -1.3199 -1.3199 0.1184 112.67 110.77 110.77
4 2.0403 -1.8202 1.0827 108.53 107.734 110.77
5 0 0 0 116.926 123.145 125.542
6 0 0 0 118.9 118.9 118.9

Atoms # full

51 3 1 -0.46692 9.615849018673153 13.909126494383866 13.033149108465903 1 0 0
58 3 4 0.20664 10.31414025392326 13.030327243186761 13.185272769110753 1 0 0
1464 67 6 -0.58244 11.56186333706259 12.188734775988678 15.039659087738976 0 1 1
1462 67 2 0.78608 11.143999723909413 11.055469023933329 14.949122459493225 0 1 1
48 3 4 0.20049 11.104437887109881 15.345987768184186 12.29729847635547 1 0 0
59 3 4 0.21572 8.983616371202872 13.784046411027623 12.167524023057148 1 0 0
46 3 2 0.77363 8.560827626875328 13.659559794992608 14.075480243418248 1 0 0
1695 78 7 -0.79903 7.931276604323683 10.619421114705126 11.57492469224875 1 0 1
1169 54 1 -0.17576 12.377899674180329 13.260864557152448 11.255241823246681 1 0 1
1179 54 4 0.17708 11.471882253131636 12.691418894920997 11.724690398405354 1 0 1
45 3 1 -0.37128 10.37223757237264 15.239286213541154 13.157155060986842 1 0 0
1465 67 3 -0.68598 11.233391685292201 43.566164929273704 13.759688911112642 0 0 1
1461 67 1 -0.47583 10.332183885909574 10.532120162202338 16.087428870309456 0 1 1
1471 67 4 0.22795 9.349934866693125 43.4367327312262 15.667341397458031 0 0 1
1702 78 4 0.16772 8.819127575416683 10.698981627516288 42.73130195563928 1 0 0
1180 54 4 0.15806 12.844148821518335 13.919627632206264 12.015544266792729 1 0 1
2741 99 12 0 15.43025700412281 14.270818792163631 14.176350910561029 0 1 0
2731 99 12 0 16.199829649042464 12.171670957773813 13.297480396463829 0 1 0
2732 99 12 0 16.515918314474206 13.501736631756522 13.652411349834491 0 1 0
2733 99 12 0 17.871049168572448 13.88108207563652 13.916263158014175 0 1 0
2734 99 12 0 18.041809766054236 15.04434134710598 14.72792103725285 0 1 0
2742 99 12 0 15.72326150398118 15.345098192530461 14.93083159113677 0 1 0
2743 99 12 0 17.0253198664716 15.818849838380576 15.179919295108203 0 1 0
2722 99 12 0 18.853960671402675 12.911188916949673 13.827780727559375 0 1 0
951 44 4 0.19062 14.674887103644252 15.524872769223126 11.735123299761307 0 1 0
968 44 4 0.1849 17.27299613739266 15.759506679410189 12.173659638414248 0 1 0
2721 99 12 0 18.48813837450256 11.489977730489793 13.731766594131017 0 1 0
1170 54 1 -0.38091 13.419789466219807 12.27647592302956 10.765645376492115 1 0 1
1182 54 4 0.18224 13.865424501176967 11.871808598811135 11.690018320522398 1 0 1
1184 54 4 0.1772 16.259944518893327 11.66013562454164 10.691124824309123 1 0 1
2735 99 12 0 19.311693135074925 15.378926652487014 15.193834742152655 0 1 0
2736 99 12 0 19.48856219580243 16.45739025592252 16.120774106913004 0 1 0
2723 99 12 0 20.14215667744938 13.315071379657605 14.193619017862233 0 1 0
2710 99 12 0 21.10283584057712 12.311351804466495 14.153050644914412 0 1 0
2711 99 12 0 22.434679833468046 12.688669479583826 14.561731252469286 0 1 0
2700 99 12 0 23.40939818835967 11.702542014075341 14.862514047086329 0 1 0
2712 99 12 0 22.724771641736233 14.026599697291966 14.934974862777782 0 1 0
2724 99 12 0 20.366741602490578 14.53397948205265 14.864176181263383 0 1 0
2725 99 12 0 21.663727834124344 14.947784981193138 15.165807478210208 0 1 0
2713 99 12 0 24.016006500213198 14.35362832431511 15.43485339421834 0 1 0
2726 99 12 0 21.88788272754354 16.056379023055356 16.035005402029068 0 1 0
2714 99 12 0 24.265524993198973 15.565191839895174 16.105788801037534 0 1 0
2701 99 12 0 24.7514064949959 12.044180806598355 15.054293268325324 0 1 0
960 44 4 0.15806 19.661240732145124 15.733519661395977 12.066753470226983 0 1 0
2010 92 4 0.16772 21.421368649399405 11.376604686807017 42.55306473106657 0 1 0
2009 92 4 0.17321 22.996437854847677 10.827208425611149 41.93271069611299 0 1 0
2702 99 12 0 25.026802888405008 13.436537443605184 15.273182240659125 0 1 0
2715 99 12 0 25.57308576608962 15.817491175274077 16.52270642281183 0 1 0
3008 100 12 0 27.664787161656353 11.457729448913618 12.214954440142833 0 0 0
2828 99 12 0 27.057722789064872 11.412027186691473 15.398413347500824 0 1 0
3015 100 12 0 27.839008331213797 12.83858744924472 12.236375042936482 0 0 0
3009 100 12 0 26.373362667374796 10.944794439825229 12.105115094192506 0 0 0
2827 99 12 0 27.347404874608934 12.798909579403077 15.497649290836478 0 1 0
3010 100 12 0 25.249618780717768 11.692237216592062 12.136840819989423 0 0 0
3017 100 12 0 25.41240884335914 13.090411506866959 11.991702975326971 0 0 0
3016 100 12 0 26.691288296166938 13.661497339707443 12.065173741937066 0 0 0
2786 99 12 0 26.3687031120846 13.759512344641466 15.62399087623201 0 1 0
3018 100 12 0 24.418103033721277 13.774058808495973 11.286784151965188 0 0 0
3007 100 12 0 28.824938820019913 10.639516214908186 12.138577018478294 0 0 0
3014 100 12 0 29.097293969711103 13.413042593541654 12.516155376748076 0 0 0
2826 99 12 0 28.678334167897784 13.1456762754894 15.842151245787136 0 1 0
2825 99 12 0 28.95043032817368 14.525103397279743 16.26803339222798 0 1 0
2785 99 12 0 26.631969816011182 15.02352094044199 16.144637129543156 0 1 0
2862 99 12 0 29.735241608338587 12.131590830622434 15.77235455047806 0 1 0
3027 100 12 0 29.18244341299603 14.786463273797995 12.480693374240756 0 0 0
2688 99 12 0 25.74621709804102 11.02821278295134 15.205986997440494 0 1 0
3029 100 12 0 26.80325863942484 15.03363740161171 11.851738661242731 0 0 0
3031 100 12 0 24.66930744744058 15.000897985704805 10.677013080403077 0 0 0
3011 100 12 0 30.10153706644813 11.215101392381868 12.299610740914254 0 0 0
3013 100 12 0 30.216078834574756 12.578167080062848 12.620494778255631 0 0 0
3019 100 12 0 32.510444419794524 10.993026364773636 12.137961958916929 0 0 0
3004 100 12 0 32.662507057701916 12.373131614210338 12.501239130368399 0 0 0
3005 100 12 0 33.86167807749563 12.974820866131349 12.378741729214365 0 0 0
3003 100 12 0 31.514272846192608 13.19907331866475 12.713482937051902 0 0 0
3025 100 12 0 31.559096836900103 14.613821216132443 12.685365653043633 0 0 0
3023 100 12 0 33.97682335118584 14.360228711960655 12.526025875692575 0 0 0
3021 100 12 0 34.73350536130764 10.93039429223177 11.27369260767589 0 0 0
2856 99 12 0 31.039886824049184 12.545509990270311 16.08215320803462 0 1 0
3012 100 12 0 31.228722899150636 43.50672346379507 12.13508288098926 0 -1 0
3020 100 12 0 33.543949295814926 43.42002783518615 11.487742168966285 0 -1 0
3024 100 12 0 32.84071485748164 15.20914953960301 12.664539215402286 0 0 0
3026 100 12 0 30.433001104288657 15.39066995350577 12.558759218705635 0 0 0
1704 78 8 0.3448 8.253249184740353 11.515908573446755 11.972822832893002 1 0 1
1703 78 8 0.33245 40.17122616358456 43.46326437545048 12.027423950090334 0 -1 1
3006 100 12 0 34.94645311846366 12.19601679943653 11.798643785380165 0 0 0
128 6 4 0.1772 35.7001642848762 13.39014810035811 14.981774981712206 0 0 0
124 6 4 0.15806 37.97407378563685 11.361938881064384 12.369324707333096 0 0 0
55 3 6 -0.56991 7.995972748662019 12.59242951380486 14.250751695801284 1 0 0
122 6 8 0.33306 39.73586185215761 11.276656971197582 13.496767882406068 0 0 0
2966 100 12 0 36.11614425657934 12.931375991215347 11.460812387825833 0 0 0
2979 100 12 0 36.28964416458783 14.235020163118197 11.924263292504506 0 0 0
113 6 1 -0.17576 37.86604539567783 10.65912327537701 13.199964601327238 0 0 0
2980 100 12 0 35.20446831209925 14.995597512229224 12.3394876244985 0 0 0
112 6 7 -0.79111 39.24527566064245 10.461727066047587 13.660964741013196 0 0 0
2978 100 12 0 37.485141100818296 14.859225860374748 11.657581815225164 0 0 0
121 6 8 0.33793 39.30974347507731 43.428501726954494 14.648709811055262 0 -1 0
118 6 4 0.16772 35.135981278041385 15.750883527110044 15.90427605010144 0 0 0
2977 100 12 0 38.38501795380134 14.307530473655907 10.725587883853448 0 0 0
2965 100 12 0 36.927610354235455 12.391547348524828 43.56225910420387 0 0 -1
131 6 4 0.18777 38.00438724521892 13.11526849354617 13.761694363893719 0 0 0
130 6 1 -0.37058 37.66188668480055 12.633535110987328 14.720120861947699 0 0 0
3022 100 12 0 35.57305201870816 43.55512197248595 43.32312883894534 0 -1 -1
117 6 4 0.17321 36.1380007553892 15.656474854889463 17.31655295530947 0 0 0
52 3 1 -0.38182 11.118288354119496 15.494630885913821 14.400067865635751 1 0 0
49 3 4 0.19609 9.763273452278925 16.127964955515196 12.994122226352886 1 0 0
53 3 1 -0.47583 11.578084397212377 17.048893535018287 14.348913695427076 1 0 0
54 3 2 0.78608 10.7163103464974 18.084103539276654 15.086401504474352 1 0 0
57 3 3 -0.68598 9.41971710933763 18.003544535929066 14.947900576257577 1 0 0
2995 100 12 0 8.259215416692262 17.972024272571588 11.393198776574243 1 0 0
62 3 4 0.20587 11.493887030881984 17.4970461935965 13.37415789934801 1 0 0
2999 100 12 0 9.791831760567845 19.73617991528751 11.809234421469771 1 0 0
955 44 8 0.33245 13.465607771613572 18.911930700135223 11.922368969172766 0 1 0
3000 100 12 0 8.775133138299964 20.485162136576875 12.428847071828033 1 0 0
953 44 4 0.17321 12.541556105743467 16.670724140066156 11.349376740031431 0 1 0
50 3 5 0.48328 8.410931615585225 15.540759509979942 14.327881050834229 1 0 0
64 3 5 0.486 8.997796204729712 18.572261025419188 15.564250694034033 1 0 0
56 3 6 -0.58244 11.143358303185956 19.196919132880794 15.228933241161698 1 0 0
956 44 8 0.3448 14.235590301702757 18.803442121298282 10.496219429949722 0 1 0
947 44 7 -0.79903 13.376790413145297 18.524266422616698 10.950997020627467 0 1 0
946 44 1 -0.17544 13.465492246405965 17.12577176841373 10.929661173158474 0 1 0
952 44 4 0.18951 14.829418489751317 17.149435543824453 12.608021167783617 0 1 0
963 44 1 -0.38394 16.03319022507433 17.062824825076163 10.852843264383054 0 1 0
945 44 1 -0.38667 14.759396432271744 16.64697827799452 11.525519904345511 0 1 0
3352 101 12 0 15.36862454380244 21.000248733218513 12.574360514698895 0 0 0
966 44 1 -0.37058 17.25431305257829 16.841332697784793 11.849675861562044 0 1 0
967 44 4 0.18777 17.23278691879525 17.52701973942304 12.710651098533894 0 1 0
3351 101 12 0 14.54616362408674 21.18964570564248 13.644539359674436 0 0 0
3340 101 12 0 14.023876998170254 20.128127391856673 14.349161916795444 0 0 0
3354 101 12 0 16.46421031463732 21.83115957530762 12.432060690838739 0 0 0
964 44 4 0.1772 16.00573357607341 18.12373519537186 10.758651588185442 0 1 0
3353 101 12 0 17.711259506214347 21.233376960168457 12.817501503232378 0 0 0
3342 101 12 0 17.672184079716345 19.867810499554146 13.058310199337438 0 0 0
950 44 1 -0.38091 18.473400397990844 17.173931619370993 11.047000883133887 0 1 0
962 44 4 0.18224 18.5229137477572 18.27117395243613 10.873843026895024 0 1 0
948 44 7 -0.79111 20.935342275810285 16.949463501989015 11.063543401576442 0 1 0
949 44 1 -0.17576 19.711049571988138 16.80407528176176 11.838906202540683 0 1 0
959 44 4 0.17708 19.669279378260534 17.39520460357881 12.819494076691676 0 1 0
199 10 7 -0.79903 23.6163649316322 18.066875619132244 12.448600258596539 0 0 0
208 10 8 0.3448 22.90621501942645 17.34587820481336 12.389502567908234 0 0 0
3341 101 12 0 18.272311112903047 19.310920453075067 14.170641110423452 0 0 0
3299 101 12 0 19.393233102902293 21.393506717923255 14.603729622378124 0 0 0
205 10 4 0.17321 24.03339836768401 17.850837598290884 14.52973453201141 0 0 0
958 44 8 0.33306 21.034359707555584 17.813610205729216 10.580421031131891 0 1 0
3298 101 12 0 19.11118270274412 20.05357570241652 15.027028501245095 0 0 0
2604 98 12 0 22.110514149495618 20.737084390118188 10.920938338076002 0 0 0
207 10 8 0.33245 24.04622246442207 18.149323986460953 11.569639047728458 0 0 0
3028 100 12 0 28.078111938724977 15.605751354924458 12.056375306606336 0 0 0
206 10 4 0.16772 24.88421926005374 16.670044424508145 13.496268743507953 0 0 0
198 10 1 -0.17544 24.53151820302428 17.668454944997457 13.55150622250437 0 0 0
203 10 4 0.19062 25.171997907167714 19.63726119843417 13.621115428461442 0 0 0
204 10 4 0.18951 26.088038845853642 18.7587765769174 12.474004356116835 0 0 0
197 10 1 -0.38667 25.677266833239532 18.684671664250384 13.49938937161788 0 0 0
215 10 1 -0.38394 26.867571422152995 18.635545023706257 14.5055338178666 0 0 0
218 10 1 -0.37058 27.703913352792878 19.93754987655718 14.147278285928376 0 0 0
219 10 4 0.18777 27.969802979460663 19.87154077739578 13.07672421415062 0 0 0
3039 100 12 0 28.3287125750766 16.921876835498523 11.642225503824568 0 0 0
216 10 4 0.1772 27.38972540795015 17.666646913703854 14.315833914597937 0 0 0
214 10 4 0.18224 29.43284712875894 19.068317623808337 15.20641501314358 0 0 0
202 10 1 -0.38091 28.93086394630119 20.002372911401217 15.0783137211954 0 0 0
217 10 4 0.18425 26.349001584258527 18.60060952070298 15.440327342414427 0 0 0
220 10 4 0.1849 27.12749750696266 20.8519373594399 14.301787238796152 0 0 0
3030 100 12 0 25.798473804458272 15.707080676595073 11.123090686683483 0 0 0
3038 100 12 0 29.51219402391684 17.548095260746937 11.957225004797536 0 0 0
3040 100 12 0 27.467296658416217 17.456168641968436 10.680646017697905 0 0 0
3041 100 12 0 26.251778173944633 16.781518740431665 43.43883571716387 0 0 -1
211 10 4 0.17708 30.24193504088331 20.953744845860676 13.64394863440247 0 0 0
201 10 1 -0.17576 29.887629426696066 21.097609289413747 14.698733671435438 0 0 0
210 10 8 0.33306 31.03806167858628 19.994685749148154 15.779765462494678 0 0 0
200 10 7 -0.79111 30.87760626675614 21.012961087045547 15.738494636981592 0 0 0
2865 100 12 0 32.96942483012173 16.59066941255565 12.784949351263247 0 0 0
2866 100 12 0 31.815272044828898 17.429632866978544 12.693503937032656 0 0 0
2864 100 12 0 34.2159498080088 17.162568072187753 12.858814455017676 0 0 0
2869 100 12 0 34.370264375266174 18.559453903125664 13.015107920636902 0 0 0
2870 100 12 0 33.25230050636846 19.394635366231235 12.763424015292934 0 0 0
3037 100 12 0 30.540109522201274 16.809303845313906 12.594095577005813 0 0 0
2871 100 12 0 31.99285240370752 18.779668969801527 12.50401621577014 0 0 0
2872 100 12 0 31.039450098733536 19.440374715665723 11.675220015669591 0 0 0
3051 100 12 0 29.843839583322282 18.76948090748342 11.337628860733515 0 0 0
2877 100 12 0 33.488273569338276 20.699314988734404 12.261513736874559 0 0 0
2879 100 12 0 31.480538849301254 20.53559974131475 10.891540548503954 0 0 0
3001 100 12 0 7.497298562431944 19.914563476051935 12.500667852762799 1 0 0
101 5 3 -0.68598 34.14084728805662 18.768258827694908 16.471450908783552 0 0 0
47 3 3 -0.68333 7.983065441644231 14.724334151901148 14.6681046959913 1 0 0
2863 100 12 0 35.34963223643391 16.349515492975776 12.632112611100442 0 0 0
2868 100 12 0 35.65245112671694 19.099206203706938 13.07497039567152 0 0 0
2990 100 12 0 36.6029483768973 16.93836154963685 12.579149461843413 0 0 0
2867 100 12 0 36.79594853735722 18.29558059301519 12.918634118236213 0 0 0
2989 100 12 0 37.660755512449434 16.177214178626492 12.051443867602323 0 0 0
2988 100 12 0 38.90005741064884 16.747127944884046 11.813026285729539 0 0 0
2987 100 12 0 39.88081639199832 16.13699798850343 10.999902033088725 0 0 0
2997 100 12 0 39.165030018695354 18.068114962955303 12.30724376107387 0 0 0
2996 100 12 0 40.44252224198799 18.58478489910806 12.161869815552645 0 0 0
2998 100 12 0 38.11842578532715 18.809882436105774 12.879551455224735 0 0 0
2875 100 12 0 35.85112957114034 20.44905617149953 12.831109035456283 0 0 0
2873 100 12 0 38.27107923412614 20.195230406033247 12.968479841285031 0 0 0
3002 100 12 0 39.5364829183128 20.787798962387242 12.777161717665976 0 0 0
2883 100 12 0 9.025913727936791 21.839358712270005 12.690796024435894 1 0 0
562 26 8 0.33306 9.035500267003545 25.784909714404733 14.970931646755485 0 0 0
1759 80 4 0.18777 11.529404302054424 24.021800791720946 10.837010567456463 0 0 1
1750 80 8 0.33306 10.040542775676672 24.744845419436693 12.216285408208478 0 0 1
1740 80 7 -0.79111 9.923350671515088 25.77741446051899 12.16497665487417 0 0 1
2884 100 12 0 7.9184483864448225 22.619874016505378 12.943768294232125 1 0 0
571 26 4 0.18777 9.553209132783296 27.5811558833595 14.669462699901192 0 0 0
570 26 1 -0.37058 10.4681404128136 27.680358365312934 15.299851782034876 0 0 0
1751 80 4 0.17708 11.628715308533106 26.18350426371942 13.442897768388466 0 0 1
572 26 4 0.1849 11.404690820060566 27.662803511870617 14.66114365452177 0 0 0
561 26 8 0.33793 9.512643554823585 24.27173938981357 14.602665244226472 0 0 0
1749 80 8 0.33793 9.66459284189399 26.085349995993884 11.204867880802084 0 0 1
1742 80 1 -0.38091 12.241425812129133 26.013077261413116 11.344309727976889 0 0 1
1741 80 1 -0.17576 11.30016327289055 26.387097815021242 12.437693851265244 0 0 1
1760 80 4 0.1849 12.564375465115514 24.161949306681315 12.258012768330854 0 0 1
1758 80 1 -0.37058 12.454165018806236 24.504666551283496 11.186471039520772 0 0 1
3327 101 12 0 15.592282003832604 27.13756013616456 13.690176197028217 0 0 0
3326 101 12 0 15.839619854806811 25.81660894228098 13.344704152978213 0 0 0
3355 101 12 0 16.267565287285485 23.18532283855857 12.666008868473568 0 0 0
3325 101 12 0 17.163935212800936 25.342608127082727 13.006245951474178 0 0 0
3314 101 12 0 17.431034852613898 23.956325068676904 12.790442408420667 0 0 0
3350 101 12 0 14.482722830389172 22.499002946190878 14.118656903616666 0 0 0
3362 101 12 0 14.940409030710406 24.85597734798911 13.881562236137794 0 0 0
3356 101 12 0 15.168255672383644 23.556278995146414 13.45521383743075 0 0 0
3361 101 12 0 14.220072398149366 25.118953450188172 15.026241164313547 0 0 0
3328 101 12 0 14.70976478604717 27.45318846744744 14.785406870663143 0 0 0
3272 101 12 0 18.169209067328104 26.165685900722544 13.352487054972704 0 0 0
3349 101 12 0 13.863345092004675 22.76226166196991 15.338738038992688 0 0 0
3360 101 12 0 14.15612316819852 26.40170044595838 15.522885317829232 0 0 0
1753 80 4 0.18117 13.214717970226705 26.463327305855316 11.602267775659781 0 0 1
3300 101 12 0 18.63541731201161 21.961360818285364 13.549697370251389 0 0 0
2605 98 12 0 23.298109491728162 21.26241413245797 11.36759338871279 0 0 0
2603 98 12 0 20.911500848838113 21.49525632540675 11.023627843175772 0 0 0
2550 98 12 0 21.033639849225565 22.854352018374975 11.367589092483719 0 0 0
2563 98 12 0 22.099924900054805 23.242233681070758 12.169500175735356 0 0 0
2512 98 12 0 20.52494022338382 25.170306045404025 10.828912181801385 0 0 0
2519 98 12 0 21.517934417130054 25.5562899195763 11.724332499477198 0 0 0
2520 98 12 0 22.284624500377582 24.612922512966342 12.425755646555036 0 0 0
2549 98 12 0 20.21199645179931 23.770995170471153 10.729947035700144 0 0 0