LAMMPS data file via write_data, version 27 Jun 2024, timestep = 7575, units = real

3362 atoms
12 atom types
3816 bonds
14 bond types
7002 angles
27 angle types
11450 dihedrals
34 dihedral types
1868 impropers
6 improper types

3.0123202141774073 44.98767978582241 xlo xhi
6.012320214177407 47.98767978582241 ylo yhi
6.012320214177407 47.98767978582241 zlo zhi

Atom Type Labels

1 c2
2 c_1
3 o
4 hc
5 ho
6 o_1
7 na
8 hn
9 n
10 hw
11 o*
12 cp

Bond Type Labels

1 c2-hc
2 c2-c2
3 c_1-o
4 c2-c_1
5 c_1-o_1
6 o-ho
7 na-c2
8 na-hn
9 n-c2
10 n-hn
11 n-c_1
12 c2-na
13 hw-o*
14 cp-cp

Angle Type Labels

1 hc-c2-hc
2 c2-c2-hc
3 c2-c2-c2
4 c2-c_1-o_1
5 o-c_1-o_1
6 c2-c_1-o
7 c_1-o-ho
8 c2-c2-c_1
9 c_1-c2-hc
10 c2-c2-na
11 na-c2-hc
12 c2-na-hn
13 hn-na-hn
14 c2-n-hn
15 c2-n-c_1
16 hn-n-hn
17 hn-n-c_1
18 n-c2-c2
19 n-c2-hc
20 hc-c2-c_1
21 n-c_1-c2
22 o_1-c_1-o
23 n-c_1-o_1
24 n-c_1-o
25 na-c2-c2
26 hw-o*-hw
27 cp-cp-cp

Dihedral Type Labels

1 c_1-c2-c2-hc
2 hc-c2-c2-hc
3 c2-c2-c2-c_1
4 c2-c2-c2-hc
5 c2-c2-c2-c2
6 c2-c_1-o-ho
7 o_1-c_1-o-ho
8 c2-c2-c_1-o
9 hc-c2-c_1-o
10 c2-c2-c_1-o_1
11 hc-c2-c_1-o_1
12 na-c2-c2-hc
13 c2-c2-c2-na
14 c2-c2-na-hn
15 hn-na-c2-hc
16 hn-n-c2-c2
17 hn-n-c2-hc
18 c_1-n-c2-c2
19 c_1-n-c2-hc
20 c2-n-c_1-c2
21 c2-n-c_1-o_1
22 c2-n-c_1-o
23 hn-n-c_1-c2
24 hn-n-c_1-o_1
25 hn-n-c_1-o
26 n-c2-c2-c2
27 n-c2-c2-hc
28 c2-c2-c_1-n
29 hc-c2-c_1-n
30 n-c_1-o-ho
31 hn-na-c2-c2
32 hc-c2-na-hn
33 na-c2-c2-c2
34 cp-cp-cp-cp

Improper Type Labels

1 c2-c_1-o-o_1
2 c2-na-hn-hn
3 c2-c_1-o_1-o
4 c2-n-hn-c_1
5 n-c_1-c2-o_1
6 cp-cp-cp-cp

Masses

1 12.0112
2 12.0112
3 15.9994
4 1.00797
5 1.00797
6 15.9994
7 14.0067
8 1.00797
9 14.0067
10 1.00797
11 15.9994
12 12.0112

Pair Coeffs # lj/class2/coul/long/omp

1 0.054 4.01
2 0.12 3.81
3 0.24 3.535
4 0.02 2.7
5 0.013 1.098
6 0.267 3.3
7 0.065 4.07
8 0.013 1.098
9 0.106 4.07
10 0.013 1.098
11 0.26 3.61
12 0.064 4.01

Bond Coeffs # class2/omp

1 1.101 345 -691.89 844.6
2 1.53 299.67 -501.77 679.81
3 1.3649 368.731 -832.478 1274.02
4 1.5202 253.707 -423.037 396.9
5 1.202 851.14 -1918.49 2160.77
6 0.965 532.506 -1282.9 2004.77
7 1.457 365.805 -699.637 998.484
8 1.006 466.74 -1073.6 1251.11
9 1.452 327.166 -547.899 526.5
10 1.01 462.75 -1053.63 1545.76
11 1.416 359.159 -558.473 1146.38
12 1.457 365.805 -699.637 998.484
13 0.97 563.28 -1428.22 1902.12
14 1.417 470.836 -627.618 1327.63

Angle Coeffs # class2/omp

1 107.66 39.641 -12.921 -2.4318
2 110.77 41.453 -10.604 5.129
3 112.67 39.516 -7.443 -9.5583
4 123.145 55.5431 -17.2123 0.1348
5 118.986 98.6813 -22.2485 10.3673
6 123.145 55.5431 -17.2123 0.1348
7 111.254 53.5303 -11.8454 -11.5405
8 108.53 51.9747 -9.4851 -10.9985
9 107.734 40.6099 -28.8121 0
10 111.91 60.7147 -13.3366 -13.0785
11 110.62 51.3137 -6.7198 -2.6003
12 110.954 50.8652 -4.4522 -10.0298
13 107.067 45.252 -7.5558 -9.512
14 113.868 45.9271 -20.0824 0
15 111.037 31.8958 -6.6942 -6.837
16 116.94 37.5749 -8.6676 0
17 117.961 37.4964 -8.1837 0
18 114.302 42.6589 -10.5464 -9.3243
19 108.937 57.401 2.9374 0
20 107.734 40.6099 -28.8121 0
21 116.926 39.4193 -10.9945 -8.7733
22 118.986 98.6813 -22.2485 10.3673
23 125.542 92.572 -34.48 -11.1871
24 125.542 92.572 -34.48 -11.1871
25 111.91 60.7147 -13.3366 -13.0785
26 103.7 49.84 -11.6 -8
27 118.9 61.0226 -34.9931 0

BondBond Coeffs

1 5.3316 1.101 1.101
2 3.3872 1.53 1.101
3 0 1.53 1.53
4 0 1.5202 1.3649
5 0 1.3649 1.202
6 46.0685 1.5202 1.202
7 0 1.3649 0.965
8 5.4199 1.53 1.5202
9 0.7115 1.5202 1.101
10 4.6217 1.53 1.457
11 12.426 1.457 1.101
12 -6.4168 1.457 1.006
13 -1.8749 1.006 1.006
14 -3.471 1.452 1.01
15 12.1186 1.452 1.416
16 -0.5655 1.01 1.01
17 -4.3126 1.01 1.416
18 3.5446 1.452 1.53
19 15.2994 1.452 1.101
20 0.7115 1.101 1.5202
21 0 1.416 1.5202
22 0 1.202 1.3649
23 138.495 1.416 1.202
24 0 1.416 1.3649
25 4.6217 1.457 1.53
26 -9.5 0.97 0.97
27 68.2856 1.417 1.417

BondAngle Coeffs

1 18.103 18.103 1.101 1.101
2 20.754 11.421 1.53 1.101
3 8.016 8.016 1.53 1.53
4 0 0 1.5202 1.3649
5 0 0 1.3649 1.202
6 34.9982 37.1298 1.5202 1.202
7 0 0 1.3649 0.965
8 18.1678 15.8758 1.53 1.5202
9 12.4632 9.1765 1.5202 1.101
10 6.0876 16.5702 1.53 1.457
11 42.4332 13.4582 1.457 1.101
12 31.8096 20.5799 1.457 1.006
13 28.0322 28.0322 1.006 1.006
14 11.8828 5.9339 1.452 1.01
15 3.7812 14.8633 1.452 1.416
16 19.8125 19.8125 1.01 1.01
17 10.8422 29.5743 1.01 1.416
18 4.6031 -5.479 1.452 1.53
19 34.8907 10.6917 1.452 1.101
20 9.1765 12.4632 1.101 1.5202
21 0 0 1.416 1.5202
22 0 0 1.202 1.3649
23 62.7124 52.4045 1.416 1.202
24 0 0 1.416 1.3649
25 16.5702 6.0876 1.457 1.53
26 22.35 22.35 0.97 0.97
27 28.8708 28.8708 1.417 1.417

Dihedral Coeffs # class2/omp

1 -0.0228 0 0.028 0 -0.1863 0
2 -0.1432 0 0.0617 0 -0.1083 0
3 0.0972 0 0.0722 0 -0.2581 0
4 0 0 0.0316 0 -0.1681 0
5 0 0 0.0514 0 -0.143 0
6 0 0 0 0 0 0
7 -2.7332 0 2.9646 0 -0.0155 0
8 0 0 0 0 0 0
9 0 0 0 0 0 0
10 0.0442 0 0.0292 0 0.0562 0
11 -0.1804 0 0.0012 0 0.0371 0
12 -0.2428 0 0.4065 0 -0.3079 0
13 0.1764 0 0.1766 0 -0.5206 0
14 -1.1506 0 -0.6344 0 -0.1845 0
15 -0.5187 0 -0.4837 0 -0.1692 0
16 -0.0483 0 -0.0077 0 -0.0014 0
17 -0.0148 0 -0.0791 0 -0.0148 0
18 0.0143 0 -0.0132 0 0.0091 0
19 0.0219 0 -0.026 0 0.0714 0
20 -0.7532 0 2.7392 0 0.0907 0
21 0.8297 0 3.7234 0 -0.0495 0
22 0 0 0 0 0 0
23 0 0 0 0 0 0
24 -1.6938 0 2.7386 0 -0.336 0
25 0 0 0 0 0 0
26 0.0972 0 0.0722 0 -0.2581 0
27 -0.0228 0 0.028 0 -0.1863 0
28 0.1693 0 -0.009 0 -0.0687 0
29 0.1693 0 -0.009 0 -0.0687 0
30 0 0 0 0 0 0
31 -1.1506 0 -0.6344 0 -0.1845 0
32 -0.5187 0 -0.4837 0 -0.1692 0
33 0.1764 0 0.1766 0 -0.5206 0
34 8.3667 0 1.1932 0 0 0

AngleAngleTorsion Coeffs

1 -5.3624 108.53 110.77
2 -12.564 110.77 110.77
3 -0.3801 112.67 108.53
4 -16.164 112.67 110.77
5 -22.045 112.67 112.67
6 0 0 111.254
7 0 118.985 111.254
8 0 108.53 0
9 0 107.734 0
10 -8.019 108.53 123.145
11 -15.3496 107.734 123.145
12 -15.7572 111.91 110.77
13 -27.3953 112.67 111.91
14 -7.5499 111.91 110.954
15 -10.4258 110.62 110.954
16 -4.6337 113.868 114.302
17 -6.659 113.868 108.937
18 -7.4314 111.037 114.302
19 -8.1335 111.037 108.937
20 -6.5335 111.037 116.926
21 -15.5547 111.037 125.542
22 0 111.037 0
23 -1.3234 117.961 116.926
24 -7.3186 117.961 125.542
25 0 117.961 0
26 -1.0631 114.302 112.67
27 -12.7974 114.302 110.77
28 -5.4514 108.53 116.926
29 -12.2417 107.734 116.926
30 0 0 111.254
31 -7.5499 110.954 111.91
32 -10.4258 110.954 110.62
33 -27.3953 111.91 112.67
34 0 118.9 118.9

EndBondTorsion Coeffs

1 -0.0204 0.3628 -0.4426 -0.0097 -0.0315 -0.0755 1.5202 1.101
2 0.213 0.312 0.0777 0.213 0.312 0.0777 1.101 1.101
3 0.0062 -0.0002 0.0036 0.0055 0.006 -0.0009 1.53 1.5202
4 0.2486 0.2422 -0.0925 0.0814 0.0591 0.2219 1.53 1.101
5 -0.0732 0 0 -0.0732 0 0 1.53 1.53
6 0 0 0 0 0 0 1.5202 0.965
7 0 0 0 0 0 0 1.202 0.965
8 0 0 0 0 0 0 1.53 1.3649
9 0 0 0 0 0 0 1.101 1.3649
10 0.2654 0.0503 0.1046 -0.281 0.0816 -0.1522 1.53 1.202
11 1.2143 0.2831 0.3916 -0.2298 0.0354 0.3853 1.101 1.202
12 0.1022 0.209 0.6433 0.196 0.7056 0.112 1.457 1.101
13 0.1032 0.5896 -0.4836 0.0579 -0.0043 -0.1906 1.53 1.457
14 -0.9466 0.9356 -0.5542 0.057 0.0625 0.4112 1.53 1.006
15 -1.1685 0.9266 -0.0993 0.085 0.3061 0.2104 1.101 1.006
16 -0.0992 -0.0727 -0.4139 0.132 0.0015 0.1324 1.01 1.53
17 -0.4894 0.1644 0.3105 -0.8983 0.2826 0.0881 1.01 1.101
18 -0.1245 -0.9369 0.7781 -0.2033 0.0035 0.056 1.416 1.53
19 0.2292 1.1732 -0.058 -0.3667 0.8197 0.1335 1.416 1.101
20 0.2299 -0.1141 -0.1424 0.0933 -0.4631 0.2883 1.452 1.5202
21 0.1598 0.7253 -0.1007 0.1226 -2.1326 0.5581 1.452 1.202
22 0 0 0 0 0 0 1.452 1.3649
23 0.6413 0.1676 0.144 -0.6979 0.5619 0.4212 1.01 1.5202
24 0.1214 0.1936 0.0816 -0.7604 -2.6431 1.2467 1.01 1.202
25 0 0 0 0 0 0 1.01 1.3649
26 -0.0797 -0.0406 0.0255 0.0742 0.0105 0.0518 1.452 1.53
27 0.3022 0.2513 0.4641 -0.0601 -0.3763 -0.1876 1.452 1.101
28 -0.2631 -0.0076 -0.1145 -0.2751 -0.3058 -0.1767 1.53 1.416
29 -0.0268 0.7836 0.0035 0.3552 -0.2685 0.5834 1.101 1.416
30 0 0 0 0 0 0 1.416 0.965
31 0.057 0.0625 0.4112 -0.9466 0.9356 -0.5542 1.006 1.53
32 0.085 0.3061 0.2104 -1.1685 0.9266 -0.0993 1.006 1.101
33 0.0579 -0.0043 -0.1906 0.1032 0.5896 -0.4836 1.457 1.53
34 -0.1185 6.3204 0 -0.1185 6.3204 0 1.417 1.417

MiddleBondTorsion Coeffs

1 -3.5039 1.2458 -0.761 1.53
2 -14.261 -0.5322 -0.4864 1.53
3 -1.5945 0.2267 -0.6911 1.53
4 -14.879 -3.6581 -0.3138 1.53
5 -17.787 -7.1877 0 1.53
6 0 0 0 1.3649
7 0 0 0 1.3649
8 0 0 0 1.5202
9 0 0 0 1.5202
10 0.3388 -0.1096 0.1219 1.5202
11 0.2359 0.9139 0.9594 1.5202
12 -10.4959 -0.7647 -0.0545 1.53
13 -15.4174 -7.3055 -1.0749 1.53
14 -2.2208 0.5479 -0.3527 1.457
15 -3.4611 1.6996 -0.6007 1.457
16 -3.5406 -3.3866 0.0352 1.452
17 -1.1752 2.8058 0.8083 1.452
18 -3.9501 -0.4002 -0.6798 1.452
19 -0.6899 -2.2646 1.1579 1.452
20 0 0 0 1.416
21 -8.8301 14.3079 -1.7716 1.416
22 0 0 0 1.416
23 0 0 0 1.416
24 -0.9084 6.1447 -0.4852 1.416
25 0 0 0 1.416
26 -4.2324 -3.3023 -1.3244 1.53
27 -4.1028 -0.5941 -0.047 1.53
28 0 0 0 1.5202
29 0 0 0 1.5202
30 0 0 0 1.3649
31 -2.2208 0.5479 -0.3527 1.457
32 -3.4611 1.6996 -0.6007 1.457
33 -15.4174 -7.3055 -1.0749 1.53
34 27.5989 -2.312 0 1.417

BondBond13 Coeffs

1 0 1.5202 1.101
2 0 1.101 1.101
3 0 1.53 1.5202
4 0 1.53 1.101
5 0 1.53 1.53
6 0 1.5202 0.965
7 0 1.202 0.965
8 0 1.53 1.3649
9 0 1.101 1.3649
10 0 1.53 1.202
11 0 1.101 1.202
12 0 1.457 1.101
13 0 1.53 1.457
14 0 1.53 1.006
15 0 1.101 1.006
16 0 1.01 1.53
17 0 1.01 1.101
18 0 1.416 1.53
19 0 1.416 1.101
20 0 1.452 1.5202
21 0 1.452 1.202
22 0 1.452 1.3649
23 0 1.01 1.5202
24 0 1.01 1.202
25 0 1.01 1.3649
26 0 1.452 1.53
27 0 1.452 1.101
28 0 1.53 1.416
29 0 1.101 1.416
30 0 1.416 0.965
31 0 1.006 1.53
32 0 1.006 1.101
33 0 1.457 1.53
34 53 1.417 1.417

AngleTorsion Coeffs

1 -0.7466 -0.9448 -0.6321 0.0162 1.4211 -1.4092 108.53 110.77
2 -0.8085 0.5569 -0.2466 -0.8085 0.5569 -0.2466 110.77 110.77
3 -0.2607 0.3203 -0.2283 0.0515 -0.0674 -0.0474 112.67 108.53
4 -0.2454 0 -0.1136 0.3113 0.4516 -0.1988 112.67 110.77
5 0.3886 -0.3139 0.1389 0.3886 -0.3139 0.1389 112.67 112.67
6 0 0 0 0 0 0 0 111.254
7 0 0 0 0 0 0 118.985 111.254
8 0 0 0 0 0 0 108.53 0
9 0 0 0 0 0 0 107.734 0
10 0.0885 -1.3703 -0.5452 0.675 0.5965 0.6725 108.53 123.145
11 9.1299 -0.4847 0.3582 -1.4946 0.7308 -0.2083 107.734 123.145
12 -1.1075 0.282 0.8318 0.5111 1.6328 -1.0155 111.91 110.77
13 -1.9225 -1.345 0.221 2.0125 0.944 -2.7612 112.67 111.91
14 -3.343 4.4558 -0.0346 0.2873 -0.8072 -0.096 111.91 110.954
15 -3.9582 2.0063 0.3213 -0.4294 -0.4442 -0.6141 110.62 110.954
16 -0.5807 0.2041 -0.1384 -2.8967 2.7084 -0.0375 113.868 114.302
17 -0.3868 0.2041 0.0445 -3.7022 1.3876 0.2393 113.868 108.937
18 -1.523 1.1296 0.7167 -0.7555 0.0564 1.2177 111.037 114.302
19 0.0372 -0.3418 -0.0775 -1.5157 2.0781 0.5364 111.037 108.937
20 5.916 1.7856 0.4052 4.2133 2.9302 3.2903 111.037 116.926
21 7.4427 2.1505 -0.2206 4.4466 4.0317 1.7129 111.037 125.542
22 0 0 0 0 0 0 111.037 0
23 1.9306 0.2105 0.0557 -2.2134 1.2909 0.9726 117.961 116.926
24 2.3848 0.703 0.1399 -2.6238 0.3606 0.5474 117.961 125.542
25 0 0 0 0 0 0 117.961 0
26 0.2039 0.1602 -0.7946 -0.5501 -1.6982 0.2485 114.302 112.67
27 -1.982 0.2325 -0.3928 -1.2469 1.6933 -1.2081 114.302 110.77
28 2.1802 -0.0335 -1.3816 2.1221 0.5032 -0.0767 108.53 116.926
29 7.095 0.0075 0.691 2.0013 0.5068 0.8406 107.734 116.926
30 0 0 0 0 0 0 0 111.254
31 0.2873 -0.8072 -0.096 -3.343 4.4558 -0.0346 110.954 111.91
32 -0.4294 -0.4442 -0.6141 -3.9582 2.0063 0.3213 110.954 110.62
33 2.0125 0.944 -2.7612 -1.9225 -1.345 0.221 111.91 112.67
34 1.9767 1.0239 0 1.9767 1.0239 0 118.9 118.9

Improper Coeffs # class2/omp

1 0 0
2 0 0
3 0 0
4 0 0
5 24.3329 0
6 7.1794 0

AngleAngle Coeffs

1 0 0 0 0 118.985 123.145
2 0.2738 -0.4825 0.2738 110.77 107.66 110.77
3 -1.3199 -1.3199 0.1184 112.67 110.77 110.77
4 2.0403 -1.8202 1.0827 108.53 107.734 110.77
5 0 0 0 116.926 123.145 125.542
6 0 0 0 118.9 118.9 118.9

Atoms # full

1678 77 5 0.48328 4.01171812693639 8.369249184245517 8.798800580838073 1 0 1
232 11 6 -0.58244 9.704715942652914 10.137792883882403 9.82074463256071 1 0 0
168 8 4 0.15806 15.447018883339792 6.052932413327871 11.924905142417021 0 1 0
233 11 3 -0.68598 10.617735469172043 11.659266783757918 8.692964223852721 1 0 0
240 11 5 0.486 10.872487644905096 11.621889985614597 9.62508393650209 1 0 0
230 11 2 0.78608 9.78773793289649 10.569047080408854 8.680707562584969 1 0 0
22 2 1 -0.17544 18.68050727715196 44.573956003999875 8.582817940693733 0 -1 0
29 2 4 0.17321 17.729273567623913 45.01424243415049 8.200964763875575 0 -1 0
27 2 4 0.19062 19.481334474216112 44.235022975785256 6.5642447791630705 0 -1 0
39 2 1 -0.38394 20.418739609610384 46.1457889935608 7.25505199489143 0 -1 0
41 2 4 0.18425 21.0653953577485 46.21944061859017 6.313366193404399 0 -1 0
3089 100 12 0 22.36634333475739 11.810389845009329 9.183900731852587 0 0 0
40 2 4 0.1772 19.664091129402294 46.9144563123228 7.35475116059273 0 -1 0
21 2 1 -0.38667 19.82371731042731 44.7395250646244 7.5476412921076985 0 -1 0
3074 100 12 0 22.33358197943876 11.43664213802563 6.509811885541431 0 0 0
3088 100 12 0 23.552402793772174 11.340905661445039 8.595804840434775 0 0 0
3099 100 12 0 24.75522542954736 11.359136392258929 9.337812434971045 0 0 0
3098 100 12 0 25.96460227073322 11.339531680365177 8.644815280976205 0 0 0
522 24 4 0.18224 26.25591308771044 7.16800382042053 9.551282315598407 0 1 0
3087 100 12 0 23.52881453545351 11.189522837409955 7.1934749579238 0 0 0
3097 100 12 0 25.957595011702132 11.2481926221408 7.240935330070435 0 0 0
3111 100 12 0 27.170382354263047 11.537926649490057 9.335143569050134 0 0 0
3109 100 12 0 28.39219397870333 11.295417222080927 7.264201461140892 0 0 0
3086 100 12 0 24.755147395347638 11.273827515511638 6.51063446000873 0 0 0
3096 100 12 0 27.182244053338874 11.315148833763848 6.564840944765909 0 0 0
109 6 1 -0.38667 34.18867803376277 7.7200723210563815 9.764838605506181 0 0 0
116 6 4 0.18951 34.02352172602221 8.819223154734539 9.59232360268037 0 0 0
115 6 4 0.19062 33.32738031368707 7.169743516378528 9.353045849948495 0 0 0
3110 100 12 0 28.38296045138203 11.42323015682406 8.657147278944542 0 0 0
127 6 1 -0.38394 34.38071784688759 7.250361798877204 11.232867677780002 0 0 0
132 6 4 0.1849 36.20189433816258 8.309716831736866 11.521082576262945 0 0 0
2938 100 12 0 30.795456269954638 11.400770025468725 8.679449663856676 0 0 0
526 24 1 -0.37058 28.281364436124665 6.761900073215033 8.697730574106709 0 1 0
525 24 4 0.18425 28.431037389361492 46.52200218672937 9.117868695359071 0 0 0
528 24 4 0.1849 28.74282464422923 6.785945472255062 7.658663452190296 0 1 0
510 24 1 -0.38091 26.732832955358912 6.959073469520181 8.525616309815444 0 1 0
527 24 4 0.18777 28.82551954784693 7.61185188904553 9.05675402263008 0 1 0
523 24 1 -0.38394 28.712839129385078 47.564683423865525 9.533307901260558 0 0 0
512 24 4 0.18951 30.354100129871853 6.753701779106936 10.07445345101754 0 1 0
130 6 1 -0.37058 35.27976229561553 8.067562074522208 12.164908155688732 0 0 0
129 6 4 0.18425 33.31488924132036 7.092537793245954 11.619210747271854 0 0 0
3108 100 12 0 29.608368466910115 11.253901125162686 6.573317002122642 0 0 0
2937 100 12 0 30.801933636415576 11.15208247217879 7.288191553432104 0 0 0
2936 100 12 0 32.01398264249221 11.123895171438493 6.599331162869985 0 0 0
118 6 4 0.16772 36.11602284630418 8.19449855190461 8.831497326381433 0 0 0
120 6 8 0.3448 34.416815853904744 8.15909310065456 7.162708458335683 0 0 0
110 6 1 -0.17544 35.33565616272613 7.364801264615446 8.760116788062849 0 0 0
117 6 4 0.17321 35.93778467213959 6.49656662545102 8.97473002232151 0 0 0
111 6 7 -0.79903 34.854142222117545 7.268233276786779 7.360824466322994 0 0 0
119 6 8 0.33245 34.09162293717401 6.631918005587457 7.510187239162999 0 0 0
1641 75 3 -0.68598 36.94391914667426 7.771272609702146 47.408584632720014 0 0 0
1648 75 5 0.486 36.43941352520146 7.250993397010445 6.085727582782641 0 0 1
1690 77 4 0.20587 39.89364381568139 8.127008487826298 6.1596046229199874 0 0 1
1681 77 1 -0.47583 40.41056617198281 7.356075796612601 6.831416321708354 0 0 1
131 6 4 0.18777 35.90702972421586 7.47673421736965 12.972980738299263 0 0 0
56 3 6 -0.58244 37.2582980078461 47.08434015882593 10.756476911633907 0 -1 0
1676 77 4 0.20049 41.957376413748406 47.90780109821337 8.60631654200651 0 -1 1
1680 77 1 -0.38182 41.86145825860389 7.763887482164638 7.22133917136548 0 0 1
1688 77 4 0.18182 42.74572375998416 7.579422547887209 6.525144094379332 0 0 1
1683 77 6 -0.56991 3.0521072364738724 7.439758765446095 10.376438998347247 1 0 1
1677 77 4 0.19609 40.94406546538051 7.395549643869787 9.032985898585839 0 0 1
1673 77 1 -0.37128 41.92833142995425 7.098257738873134 8.589706526863589 0 0 1
1689 77 4 0.21541 41.98244056725357 8.934805568896957 7.209013174212737 0 0 1
1687 77 4 0.21572 42.67097549081641 8.836548490498808 9.829238246240099 0 0 1
1679 77 1 -0.46692 42.875962912481036 7.796269076153979 9.60440799770473 0 0 1
1674 77 2 0.77363 44.442088549615846 7.5466398941465656 9.350462150548587 0 0 1
1675 77 3 -0.68333 3.087138226768557 8.348640934997436 8.47293654181084 1 0 1
1686 77 4 0.20664 42.896649529918 7.257514651233226 10.559048178017758 0 0 1
225 11 4 0.19609 6.546826462347973 12.740317860778262 8.506387142836417 1 0 0
234 11 4 0.20664 7.691924109425916 15.27621280216407 8.085407614535795 1 0 0
238 11 4 0.20587 8.296325182208673 9.80294230344342 7.278102597466733 1 0 0
228 11 1 -0.38182 8.106173911773164 12.036341635470466 7.261992578932773 1 0 0
236 11 4 0.18182 9.027212788209322 12.420125799309448 6.802313165093286 1 0 0
237 11 4 0.21541 7.381433562505916 11.990302859430436 6.421247341533668 1 0 0
222 11 2 0.77363 8.547209597276513 14.579030784469625 6.382427846637702 1 0 0
239 11 4 0.22795 7.7535161639365215 10.730749780814909 8.812861995247447 1 0 0
229 11 1 -0.47583 8.395915563119987 10.718282030427646 7.960217488423936 1 0 0
224 11 4 0.20049 8.016178026585399 13.28656544818622 9.198386461674048 1 0 0
227 11 1 -0.46692 7.490458438195725 14.407158468682466 7.443558166438062 1 0 0
221 11 1 -0.37128 7.534628764959907 13.08728457390455 8.245750361032538 1 0 0
235 11 4 0.21572 6.6137459824094975 14.596017567457343 6.90567596656834 1 0 0
82 4 4 0.18224 18.299154453752354 15.579435004415167 11.626767275763411 0 0 0
79 4 4 0.17708 19.718212360307962 14.178664950289877 10.029077536949924 0 0 0
3090 100 12 0 22.32290288741679 12.023299579864776 10.532268151520327 0 0 0
68 4 7 -0.79111 20.155951901542768 13.581166646845546 12.052217950337901 0 0 0
78 4 8 0.33306 20.65773137970245 12.738086107180404 11.80768005912502 0 0 0
69 4 1 -0.17576 20.11499636556011 14.554331452492868 10.954657758602135 0 0 0
80 4 4 0.15806 21.118202635495873 14.934697120294443 10.594296680407886 0 0 0
70 4 1 -0.38091 19.41071412064027 15.772486869301039 11.547687070528257 0 0 0
81 4 4 0.18117 19.800715857077186 15.84247265474186 12.626716238003056 0 0 0
3100 100 12 0 24.75852872580007 11.78100451917583 10.676147517826369 0 0 0
3106 100 12 0 25.928184955017475 12.295717311804676 11.254893102973629 0 0 0
3101 100 12 0 23.522370183803442 12.127124563547156 11.261604075744142 0 0 0
3112 100 12 0 27.161051741254045 12.027605917375027 10.661792611986332 0 0 0
3076 100 12 0 28.331205608463677 12.551410394721472 11.233763350296417 0 0 0
2951 100 12 0 31.989687472152962 11.735536799844306 9.333512631206947 0 0 0
2952 100 12 0 31.936119095856768 12.593056841609547 10.458820681894913 0 0 0
3077 100 12 0 29.55676631515447 12.25274845526053 10.618722676851961 0 0 0
3078 100 12 0 29.58000748364287 11.616404140301693 9.348808252895285 0 0 0
3036 100 12 0 30.704265402134588 12.932944451223381 11.026938830175698 0 0 0
2963 100 12 0 33.05949646912533 13.340412794234833 10.835067043554243 0 0 0
2964 100 12 0 32.927799155041924 14.545632797661387 11.550200399508501 0 0 0
2950 100 12 0 33.21125795675256 11.54009205184012 8.695523833800692 0 0 0
2949 100 12 0 33.206799626341805 11.199520100025763 7.322515559333814 0 0 0
2962 100 12 0 34.29788358865174 13.021133563385392 10.28591722459916 0 0 0
2975 100 12 0 35.40992368942356 13.815826352031426 10.583759901697805 0 0 0
2974 100 12 0 36.658190319089826 13.43305250161075 10.107617200321194 0 0 0
2976 100 12 0 35.25504005568107 15.06464055884959 11.208496800140992 0 0 0
2961 100 12 0 34.37936158590068 12.012778733695864 9.301339430322935 0 0 0
2973 100 12 0 36.757269707822736 12.305039521478694 9.257653106247208 0 0 0
2960 100 12 0 35.60572516068547 11.70166382495485 8.722386055796242 0 0 0
2985 100 12 0 37.74561290153083 14.297292856706692 10.296251656702154 0 0 0
2987 100 12 0 36.30737261643378 15.991386892117001 11.257237904968864 0 0 0
2986 100 12 0 37.56983454865124 15.589315540747082 10.827114659059875 0 0 0
2972 100 12 0 37.9782247519887 12.042417817325251 8.649861670416783 0 0 0
2983 100 12 0 39.122549347097305 12.719989330458276 9.081952257995756 0 0 0
2984 100 12 0 38.99779132901212 13.897428137616071 9.833815099228975 0 0 0
2948 100 12 0 34.419498261812265 11.173827398130555 6.640694198636567 0 0 0
2958 100 12 0 36.812932331337485 11.16952920254453 6.688497318497074 0 0 0
2959 100 12 0 35.60713360620997 11.197983928595312 7.387782867552291 0 0 0
2971 100 12 0 37.99738091201237 11.392041331967029 7.3907064726704785 0 0 0
2993 100 12 0 40.08479169011625 14.776484409740894 9.912170210163676 0 0 0
2992 100 12 0 41.34560699887716 14.388670018925843 9.43309475454594 0 0 0
2991 100 12 0 41.51736885312458 13.146399696621895 8.857959995630212 0 0 0
427 20 8 0.33245 41.407349033733254 13.585143451939562 12.857415489121504 -1 1 0
2982 100 12 0 40.382089360563 12.369445276172689 8.550424237085362 0 0 0
2994 100 12 0 39.87186277719992 16.10496956262832 10.314354828109371 0 0 0
428 20 8 0.3448 41.39320551486222 12.375093557984869 11.874291662368439 -1 1 0
419 20 7 -0.79903 41.99902685932546 12.966121563762652 12.373622390302234 -1 1 0
2970 100 12 0 39.217914317933484 11.319296459763041 6.710737727484054 0 0 0
2981 100 12 0 40.39064246092805 11.551870989822753 7.408206456221672 0 0 0
223 11 3 -0.68333 9.814221675126566 14.256871914127801 6.6219996168422925 1 0 0
226 11 5 0.48328 9.911739399926219 13.61569079978028 7.334709762830556 1 0 0
73 4 4 0.17321 16.849620847930094 19.42563637134727 12.248648547696943 0 0 0
87 4 4 0.18777 19.36853747460169 16.955716109879802 9.686495928437797 0 0 0
71 4 4 0.19062 17.60477065216616 19.392154715978222 9.57579285977207 0 0 0
65 4 1 -0.38667 17.30580613313993 18.588543632494478 10.29504005273127 0 0 0
3033 100 12 0 21.3948772815246 17.561891927987368 6.112253878353059 0 0 0
3018 100 12 0 22.393357200467104 18.60952785744344 8.442010790182138 0 0 0
2592 98 12 0 21.370264006247762 22.367747764869712 10.144378420185486 0 0 0
2602 98 12 0 21.857416563333814 22.584402523729093 7.359716476214402 0 0 0
2603 98 12 0 22.62782799337766 22.753280909099992 9.668649572799222 0 0 0
2604 98 12 0 22.88423070304429 22.750802439403884 8.293891773675483 0 0 0
3032 100 12 0 22.695207083933646 18.087950917564434 6.1121453664048495 0 0 0
3017 100 12 0 22.862558721532917 19.16595800298073 9.628176269756539 0 0 0
3031 100 12 0 23.21964101925087 18.57283151912643 7.312878006167897 0 0 0
86 4 1 -0.37058 19.48858550149889 17.138827374468725 10.707982937129769 0 0 0
88 4 4 0.1849 20.576527422000215 17.604119074582883 10.800763644357557 0 0 0
85 4 4 0.18425 18.78134428141131 18.896320547281427 11.784906632006727 0 0 0
83 4 1 -0.38394 18.410537329204068 18.019551858707985 11.251374597449274 0 0 0
84 4 4 0.1772 17.90971872425625 17.31944597893773 11.958939241519992 0 0 0
3029 100 12 0 25.06209617417996 19.38568666882414 8.583693187246588 0 0 0
3030 100 12 0 24.549875260257217 19.012711854075132 7.348079963619592 0 0 0
3041 100 12 0 25.357184023790634 19.00600218965633 6.18756704223631 0 0 0
3028 100 12 0 26.420601848423342 19.68730962800374 8.659073272542699 0 0 0
3040 100 12 0 26.72184701159256 19.313858904302133 6.276064748869086 0 0 0
3039 100 12 0 27.250162734672227 19.666233628355368 7.520984688939991 0 0 0
3016 100 12 0 24.21800914775482 19.543410289739636 9.701970542886437 0 0 0
3027 100 12 0 26.94771924974947 20.057146698878228 9.904337717032533 0 0 0
3037 100 12 0 29.146773877997155 20.22849890141672 8.908028526992533 0 0 0
3038 100 12 0 28.610303267810924 19.96796866810925 7.64712302193653 0 0 0
3052 100 12 0 28.918842565030562 19.569214462599852 47.266655471465675 0 0 -1
3026 100 12 0 28.319358207968012 20.27030329585992 10.034841376921499 0 0 0
2606 98 12 0 24.547827836311818 22.544656402746888 6.55747500959763 0 0 0
2866 100 12 0 30.52019305483203 20.404776397499596 9.060441636366424 0 0 0
2869 100 12 0 33.260440058897075 20.800823022630475 9.393735155681732 0 0 0
2871 100 12 0 31.336619959825384 20.499928060759235 7.939926658162632 0 0 0
2872 100 12 0 30.791584010863197 20.303523517140746 6.669507069998245 0 0 0
3051 100 12 0 29.437184228322682 19.984192976378296 6.524056278639211 0 0 0
2879 100 12 0 31.641177437506393 20.25165163002744 47.53662495710221 0 0 -1
2870 100 12 0 32.69432975031733 20.78826082731669 8.100296900677314 0 0 0
2877 100 12 0 33.51367060982278 20.919458921773842 6.979969463692611 0 0 0
2878 100 12 0 33.010102435560405 20.547347513057233 47.69625863289544 0 0 -1
2865 100 12 0 31.07859514278554 20.44305127970553 10.353234289662225 0 0 0
2864 100 12 0 32.4653198827966 20.42551178488376 10.481558918686027 0 0 0
2876 100 12 0 34.87415791041829 21.22323421888565 7.146141742696838 0 0 0
2988 100 12 0 36.05257500076626 17.36877095693042 11.394296643368389 0 0 0
2997 100 12 0 37.004920286786714 18.30593835296377 10.964112882887964 0 0 0
2998 100 12 0 36.56501424061399 19.53276645614071 10.418282869045258 0 0 0
2868 100 12 0 34.65384983674403 20.75726755356384 9.517529571909687 0 0 0
2996 100 12 0 38.313370295161064 17.902998993488588 10.708258227651347 0 0 0
2873 100 12 0 37.40161205865924 20.259398783935374 9.564688304395489 0 0 0
2874 100 12 0 36.84157373636314 21.05336511201171 8.5331850084635 0 0 0
2875 100 12 0 35.453044150925365 21.14349243086795 8.433736989880648 0 0 0
3002 100 12 0 38.75999565125354 19.965564509669857 9.51861224305004 0 0 0
2885 100 12 0 39.58624467445113 20.662066379365065 8.612762473056309 0 0 0
2867 100 12 0 35.218072798824814 19.8958338598737 10.500249805575233 0 0 0
2995 100 12 0 38.597360024506344 16.529818488153104 10.697187107320646 0 0 0
3001 100 12 0 39.23312987333655 18.80935862019992 10.162162312776292 0 0 0
2990 100 12 0 34.34559285194719 19.099124267660095 11.242953606136469 0 0 0
2999 100 12 0 40.86955878532441 17.047162370985326 10.086968723136557 0 0 0
3000 100 12 0 40.55108671787446 18.39530622463507 9.909610251171769 0 0 0
2883 100 12 0 41.41131325019397 19.1599410609896 9.099839872324457 0 0 0
2884 100 12 0 40.931556259828085 20.290539685637782 8.482163478616172 0 0 0
691 32 8 0.33245 9.784803620849186 28.723610298921102 7.7565341076386325 0 0 0
686 32 1 -0.38091 15.78294186390741 27.401495553059128 7.542009135094278 0 0 0
681 32 1 -0.38667 12.020963710293419 28.06356556689093 7.994702207442066 0 0 0
688 32 4 0.18951 11.295938934142512 27.700970314463905 8.816518117828439 0 0 0
687 32 4 0.19062 11.77946576526103 27.492021634324402 7.04778512135751 0 0 0
700 32 4 0.1772 13.531741168651221 26.966261686261188 9.01325142781609 0 0 0
697 32 4 0.18117 16.031602222100314 27.413675889099416 8.652365796858174 0 0 0
695 32 4 0.17708 17.074265572367274 29.133134702082366 7.089203792492793 0 0 0
2591 98 12 0 21.09094464783883 22.655749329790495 11.475412450740365 0 0 0
2550 98 12 0 23.610662961975024 23.124855737663882 10.605382213559924 0 0 0
2548 98 12 0 21.822017680721608 23.66058950300302 12.11571936238024 0 0 0
2549 98 12 0 23.205457348990986 23.732726618773807 11.838707437207104 0 0 0
2509 98 12 0 19.951607925750796 26.546835192605126 10.0844108843309 0 0 0
2510 98 12 0 19.439010939215702 27.285360982034923 9.04043251940723 0 0 0
2508 98 12 0 21.246555378987875 26.82329732851547 10.575171865906842 0 0 0
2605 98 12 0 24.219031246259405 22.814795695244097 7.881667094968506 0 0 0
2564 98 12 0 25.225728625357267 23.09887484913953 8.810273431152766 0 0 0
2576 98 12 0 26.885246261221646 22.991839384833067 7.0636162843865105 0 0 0
2563 98 12 0 24.914402679058178 23.294396849019094 10.158898860960022 0 0 0
2575 98 12 0 26.55358301783593 23.210979145421387 8.393849184168811 0 0 0
2519 98 12 0 25.286188355605947 24.911096298019856 11.936434727549887 0 0 0
2520 98 12 0 25.80603540438238 23.985765319666832 10.97449158409951 0 0 0
2521 98 12 0 27.13454836405143 24.108859212028634 10.551077695505972 0 0 0
2522 98 12 0 27.538048754699172 23.57439772806381 9.321682089702579 0 0 0
2535 98 12 0 28.87453026003802 23.68784524606529 8.94501789641376 0 0 0
2506 98 12 0 27.976491556636386 24.9898938293491 11.234741460019887 0 0 0
2466 98 12 0 29.33873839447109 25.017944533608098 10.928107275202953 0 0 0
2577 98 12 0 28.20359685919119 23.1686791694375 6.6634040908727155 0 0 0
2536 98 12 0 29.201132496641158 23.47651976688117 7.601694914511542 0 0 0
2465 98 12 0 29.804826984156943 24.291708381337653 9.810291344696878 0 0 0
2479 98 12 0 30.118066938790815 26.074770396283505 11.420736762198617 0 0 0
2452 98 12 0 30.50605882342254 23.711705711022937 7.171441666587155 0 0 0
2463 98 12 0 31.47922856463464 24.164321710583838 8.07528489705134 0 0 0
2464 98 12 0 31.128727911858828 24.48517970399975 9.397672155374698 0 0 0
2477 98 12 0 32.0145211463016 25.245634784319805 10.186062682140623 0 0 0
2478 98 12 0 31.493325443505178 26.09539791004617 11.196205239951372 0 0 0
2462 98 12 0 32.75723842768315 24.466732934334917 7.600789636133748 0 0 0
2476 98 12 0 33.32958602170737 25.464444151835558 9.751935170563238 0 0 0
2475 98 12 0 33.681709185889176 25.10496267809367 8.437080106276525 0 0 0
2487 98 12 0 34.1712170463658 26.314239699648514 10.488691748297487 0 0 0
2461 98 12 0 33.08668964772521 24.219340911194283 6.257482726360781 0 0 0
2889 100 12 0 35.70901301661024 21.258248701616143 6.018502242793295 0 0 0
2473 98 12 0 35.327553099677246 24.997021872089466 6.670276937053339 0 0 0
2474 98 12 0 34.95135608807074 25.410721958315683 7.949715749835898 0 0 0
2486 98 12 0 35.47935088924687 26.527488374321752 10.047119482961422 0 0 0