LAMMPS data file via write_data, version 27 Jun 2024, timestep = 30000, units = real

3362 atoms
12 atom types
3816 bonds
14 bond types
7002 angles
27 angle types
11450 dihedrals
34 dihedral types
1868 impropers
6 improper types

7.5135296411104875 40.48647035888908 xlo xhi
10.513529641110487 43.48647035888908 ylo yhi
10.513529641110487 43.48647035888908 zlo zhi

Atom Type Labels

1 c2
2 c_1
3 o
4 hc
5 ho
6 o_1
7 na
8 hn
9 n
10 hw
11 o*
12 cp

Bond Type Labels

1 c2-hc
2 c2-c2
3 c_1-o
4 c2-c_1
5 c_1-o_1
6 o-ho
7 na-c2
8 na-hn
9 n-c2
10 n-hn
11 n-c_1
12 c2-na
13 hw-o*
14 cp-cp

Angle Type Labels

1 hc-c2-hc
2 c2-c2-hc
3 c2-c2-c2
4 c2-c_1-o_1
5 o-c_1-o_1
6 c2-c_1-o
7 c_1-o-ho
8 c2-c2-c_1
9 c_1-c2-hc
10 c2-c2-na
11 na-c2-hc
12 c2-na-hn
13 hn-na-hn
14 c2-n-hn
15 c2-n-c_1
16 hn-n-hn
17 hn-n-c_1
18 n-c2-c2
19 n-c2-hc
20 hc-c2-c_1
21 n-c_1-c2
22 o_1-c_1-o
23 n-c_1-o_1
24 n-c_1-o
25 na-c2-c2
26 hw-o*-hw
27 cp-cp-cp

Dihedral Type Labels

1 c_1-c2-c2-hc
2 hc-c2-c2-hc
3 c2-c2-c2-c_1
4 c2-c2-c2-hc
5 c2-c2-c2-c2
6 c2-c_1-o-ho
7 o_1-c_1-o-ho
8 c2-c2-c_1-o
9 hc-c2-c_1-o
10 c2-c2-c_1-o_1
11 hc-c2-c_1-o_1
12 na-c2-c2-hc
13 c2-c2-c2-na
14 c2-c2-na-hn
15 hn-na-c2-hc
16 hn-n-c2-c2
17 hn-n-c2-hc
18 c_1-n-c2-c2
19 c_1-n-c2-hc
20 c2-n-c_1-c2
21 c2-n-c_1-o_1
22 c2-n-c_1-o
23 hn-n-c_1-c2
24 hn-n-c_1-o_1
25 hn-n-c_1-o
26 n-c2-c2-c2
27 n-c2-c2-hc
28 c2-c2-c_1-n
29 hc-c2-c_1-n
30 n-c_1-o-ho
31 hn-na-c2-c2
32 hc-c2-na-hn
33 na-c2-c2-c2
34 cp-cp-cp-cp

Improper Type Labels

1 c2-c_1-o-o_1
2 c2-na-hn-hn
3 c2-c_1-o_1-o
4 c2-n-hn-c_1
5 n-c_1-c2-o_1
6 cp-cp-cp-cp

Masses

1 12.0112
2 12.0112
3 15.9994
4 1.00797
5 1.00797
6 15.9994
7 14.0067
8 1.00797
9 14.0067
10 1.00797
11 15.9994
12 12.0112

Pair Coeffs # lj/class2/coul/long

1 0.054 4.01
2 0.12 3.81
3 0.24 3.535
4 0.02 2.7
5 0.013 1.098
6 0.267 3.3
7 0.065 4.07
8 0.013 1.098
9 0.106 4.07
10 0.013 1.098
11 0.26 3.61
12 0.064 4.01

Bond Coeffs # class2

1 1.101 345 -691.89 844.6
2 1.53 299.67 -501.77 679.81
3 1.3649 368.731 -832.478 1274.02
4 1.5202 253.707 -423.037 396.9
5 1.202 851.14 -1918.49 2160.77
6 0.965 532.506 -1282.9 2004.77
7 1.457 365.805 -699.637 998.484
8 1.006 466.74 -1073.6 1251.11
9 1.452 327.166 -547.899 526.5
10 1.01 462.75 -1053.63 1545.76
11 1.416 359.159 -558.473 1146.38
12 1.457 365.805 -699.637 998.484
13 0.97 563.28 -1428.22 1902.12
14 1.417 470.836 -627.618 1327.63

Angle Coeffs # class2

1 107.66 39.641 -12.921 -2.4318
2 110.77 41.453 -10.604 5.129
3 112.67 39.516 -7.443 -9.5583
4 123.145 55.5431 -17.2123 0.1348
5 118.986 98.6813 -22.2485 10.3673
6 123.145 55.5431 -17.2123 0.1348
7 111.254 53.5303 -11.8454 -11.5405
8 108.53 51.9747 -9.4851 -10.9985
9 107.734 40.6099 -28.8121 0
10 111.91 60.7147 -13.3366 -13.0785
11 110.62 51.3137 -6.7198 -2.6003
12 110.954 50.8652 -4.4522 -10.0298
13 107.067 45.252 -7.5558 -9.512
14 113.868 45.9271 -20.0824 0
15 111.037 31.8958 -6.6942 -6.837
16 116.94 37.5749 -8.6676 0
17 117.961 37.4964 -8.1837 0
18 114.302 42.6589 -10.5464 -9.3243
19 108.937 57.401 2.9374 0
20 107.734 40.6099 -28.8121 0
21 116.926 39.4193 -10.9945 -8.7733
22 118.986 98.6813 -22.2485 10.3673
23 125.542 92.572 -34.48 -11.1871
24 125.542 92.572 -34.48 -11.1871
25 111.91 60.7147 -13.3366 -13.0785
26 103.7 49.84 -11.6 -8
27 118.9 61.0226 -34.9931 0

BondBond Coeffs

1 5.3316 1.101 1.101
2 3.3872 1.53 1.101
3 0 1.53 1.53
4 0 1.5202 1.3649
5 0 1.3649 1.202
6 46.0685 1.5202 1.202
7 0 1.3649 0.965
8 5.4199 1.53 1.5202
9 0.7115 1.5202 1.101
10 4.6217 1.53 1.457
11 12.426 1.457 1.101
12 -6.4168 1.457 1.006
13 -1.8749 1.006 1.006
14 -3.471 1.452 1.01
15 12.1186 1.452 1.416
16 -0.5655 1.01 1.01
17 -4.3126 1.01 1.416
18 3.5446 1.452 1.53
19 15.2994 1.452 1.101
20 0.7115 1.101 1.5202
21 0 1.416 1.5202
22 0 1.202 1.3649
23 138.495 1.416 1.202
24 0 1.416 1.3649
25 4.6217 1.457 1.53
26 -9.5 0.97 0.97
27 68.2856 1.417 1.417

BondAngle Coeffs

1 18.103 18.103 1.101 1.101
2 20.754 11.421 1.53 1.101
3 8.016 8.016 1.53 1.53
4 0 0 1.5202 1.3649
5 0 0 1.3649 1.202
6 34.9982 37.1298 1.5202 1.202
7 0 0 1.3649 0.965
8 18.1678 15.8758 1.53 1.5202
9 12.4632 9.1765 1.5202 1.101
10 6.0876 16.5702 1.53 1.457
11 42.4332 13.4582 1.457 1.101
12 31.8096 20.5799 1.457 1.006
13 28.0322 28.0322 1.006 1.006
14 11.8828 5.9339 1.452 1.01
15 3.7812 14.8633 1.452 1.416
16 19.8125 19.8125 1.01 1.01
17 10.8422 29.5743 1.01 1.416
18 4.6031 -5.479 1.452 1.53
19 34.8907 10.6917 1.452 1.101
20 9.1765 12.4632 1.101 1.5202
21 0 0 1.416 1.5202
22 0 0 1.202 1.3649
23 62.7124 52.4045 1.416 1.202
24 0 0 1.416 1.3649
25 16.5702 6.0876 1.457 1.53
26 22.35 22.35 0.97 0.97
27 28.8708 28.8708 1.417 1.417

Dihedral Coeffs # class2

1 -0.0228 0 0.028 0 -0.1863 0
2 -0.1432 0 0.0617 0 -0.1083 0
3 0.0972 0 0.0722 0 -0.2581 0
4 0 0 0.0316 0 -0.1681 0
5 0 0 0.0514 0 -0.143 0
6 0 0 0 0 0 0
7 -2.7332 0 2.9646 0 -0.0155 0
8 0 0 0 0 0 0
9 0 0 0 0 0 0
10 0.0442 0 0.0292 0 0.0562 0
11 -0.1804 0 0.0012 0 0.0371 0
12 -0.2428 0 0.4065 0 -0.3079 0
13 0.1764 0 0.1766 0 -0.5206 0
14 -1.1506 0 -0.6344 0 -0.1845 0
15 -0.5187 0 -0.4837 0 -0.1692 0
16 -0.0483 0 -0.0077 0 -0.0014 0
17 -0.0148 0 -0.0791 0 -0.0148 0
18 0.0143 0 -0.0132 0 0.0091 0
19 0.0219 0 -0.026 0 0.0714 0
20 -0.7532 0 2.7392 0 0.0907 0
21 0.8297 0 3.7234 0 -0.0495 0
22 0 0 0 0 0 0
23 0 0 0 0 0 0
24 -1.6938 0 2.7386 0 -0.336 0
25 0 0 0 0 0 0
26 0.0972 0 0.0722 0 -0.2581 0
27 -0.0228 0 0.028 0 -0.1863 0
28 0.1693 0 -0.009 0 -0.0687 0
29 0.1693 0 -0.009 0 -0.0687 0
30 0 0 0 0 0 0
31 -1.1506 0 -0.6344 0 -0.1845 0
32 -0.5187 0 -0.4837 0 -0.1692 0
33 0.1764 0 0.1766 0 -0.5206 0
34 8.3667 0 1.1932 0 0 0

AngleAngleTorsion Coeffs

1 -5.3624 108.53 110.77
2 -12.564 110.77 110.77
3 -0.3801 112.67 108.53
4 -16.164 112.67 110.77
5 -22.045 112.67 112.67
6 0 0 111.254
7 0 118.985 111.254
8 0 108.53 0
9 0 107.734 0
10 -8.019 108.53 123.145
11 -15.3496 107.734 123.145
12 -15.7572 111.91 110.77
13 -27.3953 112.67 111.91
14 -7.5499 111.91 110.954
15 -10.4258 110.62 110.954
16 -4.6337 113.868 114.302
17 -6.659 113.868 108.937
18 -7.4314 111.037 114.302
19 -8.1335 111.037 108.937
20 -6.5335 111.037 116.926
21 -15.5547 111.037 125.542
22 0 111.037 0
23 -1.3234 117.961 116.926
24 -7.3186 117.961 125.542
25 0 117.961 0
26 -1.0631 114.302 112.67
27 -12.7974 114.302 110.77
28 -5.4514 108.53 116.926
29 -12.2417 107.734 116.926
30 0 0 111.254
31 -7.5499 110.954 111.91
32 -10.4258 110.954 110.62
33 -27.3953 111.91 112.67
34 0 118.9 118.9

EndBondTorsion Coeffs

1 -0.0204 0.3628 -0.4426 -0.0097 -0.0315 -0.0755 1.5202 1.101
2 0.213 0.312 0.0777 0.213 0.312 0.0777 1.101 1.101
3 0.0062 -0.0002 0.0036 0.0055 0.006 -0.0009 1.53 1.5202
4 0.2486 0.2422 -0.0925 0.0814 0.0591 0.2219 1.53 1.101
5 -0.0732 0 0 -0.0732 0 0 1.53 1.53
6 0 0 0 0 0 0 1.5202 0.965
7 0 0 0 0 0 0 1.202 0.965
8 0 0 0 0 0 0 1.53 1.3649
9 0 0 0 0 0 0 1.101 1.3649
10 0.2654 0.0503 0.1046 -0.281 0.0816 -0.1522 1.53 1.202
11 1.2143 0.2831 0.3916 -0.2298 0.0354 0.3853 1.101 1.202
12 0.1022 0.209 0.6433 0.196 0.7056 0.112 1.457 1.101
13 0.1032 0.5896 -0.4836 0.0579 -0.0043 -0.1906 1.53 1.457
14 -0.9466 0.9356 -0.5542 0.057 0.0625 0.4112 1.53 1.006
15 -1.1685 0.9266 -0.0993 0.085 0.3061 0.2104 1.101 1.006
16 -0.0992 -0.0727 -0.4139 0.132 0.0015 0.1324 1.01 1.53
17 -0.4894 0.1644 0.3105 -0.8983 0.2826 0.0881 1.01 1.101
18 -0.1245 -0.9369 0.7781 -0.2033 0.0035 0.056 1.416 1.53
19 0.2292 1.1732 -0.058 -0.3667 0.8197 0.1335 1.416 1.101
20 0.2299 -0.1141 -0.1424 0.0933 -0.4631 0.2883 1.452 1.5202
21 0.1598 0.7253 -0.1007 0.1226 -2.1326 0.5581 1.452 1.202
22 0 0 0 0 0 0 1.452 1.3649
23 0.6413 0.1676 0.144 -0.6979 0.5619 0.4212 1.01 1.5202
24 0.1214 0.1936 0.0816 -0.7604 -2.6431 1.2467 1.01 1.202
25 0 0 0 0 0 0 1.01 1.3649
26 -0.0797 -0.0406 0.0255 0.0742 0.0105 0.0518 1.452 1.53
27 0.3022 0.2513 0.4641 -0.0601 -0.3763 -0.1876 1.452 1.101
28 -0.2631 -0.0076 -0.1145 -0.2751 -0.3058 -0.1767 1.53 1.416
29 -0.0268 0.7836 0.0035 0.3552 -0.2685 0.5834 1.101 1.416
30 0 0 0 0 0 0 1.416 0.965
31 0.057 0.0625 0.4112 -0.9466 0.9356 -0.5542 1.006 1.53
32 0.085 0.3061 0.2104 -1.1685 0.9266 -0.0993 1.006 1.101
33 0.0579 -0.0043 -0.1906 0.1032 0.5896 -0.4836 1.457 1.53
34 -0.1185 6.3204 0 -0.1185 6.3204 0 1.417 1.417

MiddleBondTorsion Coeffs

1 -3.5039 1.2458 -0.761 1.53
2 -14.261 -0.5322 -0.4864 1.53
3 -1.5945 0.2267 -0.6911 1.53
4 -14.879 -3.6581 -0.3138 1.53
5 -17.787 -7.1877 0 1.53
6 0 0 0 1.3649
7 0 0 0 1.3649
8 0 0 0 1.5202
9 0 0 0 1.5202
10 0.3388 -0.1096 0.1219 1.5202
11 0.2359 0.9139 0.9594 1.5202
12 -10.4959 -0.7647 -0.0545 1.53
13 -15.4174 -7.3055 -1.0749 1.53
14 -2.2208 0.5479 -0.3527 1.457
15 -3.4611 1.6996 -0.6007 1.457
16 -3.5406 -3.3866 0.0352 1.452
17 -1.1752 2.8058 0.8083 1.452
18 -3.9501 -0.4002 -0.6798 1.452
19 -0.6899 -2.2646 1.1579 1.452
20 0 0 0 1.416
21 -8.8301 14.3079 -1.7716 1.416
22 0 0 0 1.416
23 0 0 0 1.416
24 -0.9084 6.1447 -0.4852 1.416
25 0 0 0 1.416
26 -4.2324 -3.3023 -1.3244 1.53
27 -4.1028 -0.5941 -0.047 1.53
28 0 0 0 1.5202
29 0 0 0 1.5202
30 0 0 0 1.3649
31 -2.2208 0.5479 -0.3527 1.457
32 -3.4611 1.6996 -0.6007 1.457
33 -15.4174 -7.3055 -1.0749 1.53
34 27.5989 -2.312 0 1.417

BondBond13 Coeffs

1 0 1.5202 1.101
2 0 1.101 1.101
3 0 1.53 1.5202
4 0 1.53 1.101
5 0 1.53 1.53
6 0 1.5202 0.965
7 0 1.202 0.965
8 0 1.53 1.3649
9 0 1.101 1.3649
10 0 1.53 1.202
11 0 1.101 1.202
12 0 1.457 1.101
13 0 1.53 1.457
14 0 1.53 1.006
15 0 1.101 1.006
16 0 1.01 1.53
17 0 1.01 1.101
18 0 1.416 1.53
19 0 1.416 1.101
20 0 1.452 1.5202
21 0 1.452 1.202
22 0 1.452 1.3649
23 0 1.01 1.5202
24 0 1.01 1.202
25 0 1.01 1.3649
26 0 1.452 1.53
27 0 1.452 1.101
28 0 1.53 1.416
29 0 1.101 1.416
30 0 1.416 0.965
31 0 1.006 1.53
32 0 1.006 1.101
33 0 1.457 1.53
34 53 1.417 1.417

AngleTorsion Coeffs

1 -0.7466 -0.9448 -0.6321 0.0162 1.4211 -1.4092 108.53 110.77
2 -0.8085 0.5569 -0.2466 -0.8085 0.5569 -0.2466 110.77 110.77
3 -0.2607 0.3203 -0.2283 0.0515 -0.0674 -0.0474 112.67 108.53
4 -0.2454 0 -0.1136 0.3113 0.4516 -0.1988 112.67 110.77
5 0.3886 -0.3139 0.1389 0.3886 -0.3139 0.1389 112.67 112.67
6 0 0 0 0 0 0 0 111.254
7 0 0 0 0 0 0 118.985 111.254
8 0 0 0 0 0 0 108.53 0
9 0 0 0 0 0 0 107.734 0
10 0.0885 -1.3703 -0.5452 0.675 0.5965 0.6725 108.53 123.145
11 9.1299 -0.4847 0.3582 -1.4946 0.7308 -0.2083 107.734 123.145
12 -1.1075 0.282 0.8318 0.5111 1.6328 -1.0155 111.91 110.77
13 -1.9225 -1.345 0.221 2.0125 0.944 -2.7612 112.67 111.91
14 -3.343 4.4558 -0.0346 0.2873 -0.8072 -0.096 111.91 110.954
15 -3.9582 2.0063 0.3213 -0.4294 -0.4442 -0.6141 110.62 110.954
16 -0.5807 0.2041 -0.1384 -2.8967 2.7084 -0.0375 113.868 114.302
17 -0.3868 0.2041 0.0445 -3.7022 1.3876 0.2393 113.868 108.937
18 -1.523 1.1296 0.7167 -0.7555 0.0564 1.2177 111.037 114.302
19 0.0372 -0.3418 -0.0775 -1.5157 2.0781 0.5364 111.037 108.937
20 5.916 1.7856 0.4052 4.2133 2.9302 3.2903 111.037 116.926
21 7.4427 2.1505 -0.2206 4.4466 4.0317 1.7129 111.037 125.542
22 0 0 0 0 0 0 111.037 0
23 1.9306 0.2105 0.0557 -2.2134 1.2909 0.9726 117.961 116.926
24 2.3848 0.703 0.1399 -2.6238 0.3606 0.5474 117.961 125.542
25 0 0 0 0 0 0 117.961 0
26 0.2039 0.1602 -0.7946 -0.5501 -1.6982 0.2485 114.302 112.67
27 -1.982 0.2325 -0.3928 -1.2469 1.6933 -1.2081 114.302 110.77
28 2.1802 -0.0335 -1.3816 2.1221 0.5032 -0.0767 108.53 116.926
29 7.095 0.0075 0.691 2.0013 0.5068 0.8406 107.734 116.926
30 0 0 0 0 0 0 0 111.254
31 0.2873 -0.8072 -0.096 -3.343 4.4558 -0.0346 110.954 111.91
32 -0.4294 -0.4442 -0.6141 -3.9582 2.0063 0.3213 110.954 110.62
33 2.0125 0.944 -2.7612 -1.9225 -1.345 0.221 111.91 112.67
34 1.9767 1.0239 0 1.9767 1.0239 0 118.9 118.9

Improper Coeffs # class2

1 0 0
2 0 0
3 0 0
4 0 0
5 24.3329 0
6 7.1794 0

AngleAngle Coeffs

1 0 0 0 0 118.985 123.145
2 0.2738 -0.4825 0.2738 110.77 107.66 110.77
3 -1.3199 -1.3199 0.1184 112.67 110.77 110.77
4 2.0403 -1.8202 1.0827 108.53 107.734 110.77
5 0 0 0 116.926 123.145 125.542
6 0 0 0 118.9 118.9 118.9

Atoms # full

2982 100 12 0 8.294188477436743 12.262601644366281 15.90905390007672 1 0 0
2981 100 12 0 9.308098386160339 11.959805086962678 14.958078007491574 1 0 0
2970 100 12 0 9.051053450441069 12.223346918470089 13.591959811740546 1 0 0
2968 100 12 0 11.05762744909929 13.515890437613407 13.493444795406976 1 0 0
2969 100 12 0 9.959093107809846 12.950363799553013 12.83837320672388 1 0 0
2967 100 12 0 11.732397015867328 14.602779518719597 12.908394118651774 1 0 0
2731 99 12 0 12.948687027648575 11.366221102464705 14.592081777738867 0 1 0
2741 99 12 0 13.126455149629962 11.818355480304305 12.228339162212647 0 1 0
2954 100 12 0 11.326685210061912 15.0857341217195 11.676464778768556 1 0 0
2957 100 12 0 8.258614169070128 13.122512976532574 11.040319169950859 1 0 0
2956 100 12 0 9.514207423713167 13.513903433929801 11.60526536216032 1 0 0
2955 100 12 0 10.229634892799568 14.567081816958986 11.012433268177027 1 0 0
2743 99 12 0 15.326410058990746 12.055479558368528 11.396823182877053 0 1 0
2742 99 12 0 13.993135243813178 12.423117685950979 11.318222800445113 0 1 0
2732 99 12 0 13.544363614839671 11.072499788395465 13.352603636508562 0 1 0
2745 99 12 0 17.6673788386992 12.781438906393127 11.116978790461262 0 1 0
2736 99 12 0 18.078104919283106 11.564141418141743 11.64867907704038 0 1 0
2720 99 12 0 13.710913223092637 11.516671625051993 15.772724172506408 0 1 0
1051 48 1 -0.38394 17.30064891381663 17.20479934613209 14.905808160191718 0 1 0
1053 48 4 0.18425 17.714441003073656 17.38544698543438 13.898672767169352 0 1 0
1041 48 4 0.17321 15.33437370550443 18.23798317958672 13.283756593127674 0 1 0
2733 99 12 0 14.870729203613678 10.608267177836384 13.340008819346176 0 1 0
2734 99 12 0 15.795775449718457 11.105178237811538 12.319494776978097 0 1 0
2735 99 12 0 17.14855184446615 10.783697681955616 12.389173857704392 0 1 0
2721 99 12 0 14.90887776512565 10.757364120495755 15.775269808462031 0 1 0
2744 99 12 0 16.273239212378726 12.994779806891183 10.939327832833433 0 1 0
2746 99 12 0 18.54656434474626 13.764962358015506 10.811954521382082 0 1 0
1050 48 4 0.18224 19.703927665032367 17.22865706542412 16.36980699212758 0 1 0
1038 48 1 -0.38091 19.550575097828528 16.34293893129257 15.82468185168442 0 1 0
2738 99 12 0 20.32425895865037 12.342955987048358 11.493998583969134 0 1 0
2739 99 12 0 21.697345297714808 12.136241582401418 11.668897687943794 0 1 0
2740 99 12 0 22.562854576708116 13.252479123102644 11.787459449869717 0 1 0
2747 99 12 0 19.855919484377154 13.609206165911885 11.116477117328015 0 1 0
2617 99 12 0 22.009281522970824 14.509159215597796 11.720682420972453 0 1 0
2748 99 12 0 20.736101621891482 14.721961385076018 11.233168582106485 0 1 0
2618 99 12 0 22.699842603611984 15.643458157674885 12.26421661677512 0 1 0
2737 99 12 0 19.44638174309045 11.305854460351972 11.83873560480808 0 1 0
2728 99 12 0 22.14245162021864 10.937910577592865 12.201322393341265 0 1 0
2623 99 12 0 20.242244733288985 16.007684543486114 10.855694663973532 0 1 0
2619 99 12 0 23.90596311483433 15.459350138541037 12.97204602626709 0 1 0
2613 99 12 0 23.838090966783042 13.112859969579809 12.424742526043413 0 1 0
2729 99 12 0 23.520180826693746 10.707466451355334 12.50787670946049 0 1 0
1049 48 4 0.18117 19.973513794803146 16.504122474419198 14.802123803409842 0 1 0
1045 48 8 0.33793 21.967184620821293 15.969254531964626 15.999455222605432 0 1 0
2730 99 12 0 24.377233104913977 11.830906344264932 12.538171387378178 0 1 0
2614 99 12 0 24.482002137723196 14.21864866194501 13.00465048006408 0 1 0
2773 99 12 0 25.643133875679535 11.644048935576418 13.094461690921078 0 1 0
2753 99 12 0 28.191434808659928 11.443281944192735 14.164629294807819 0 1 0
2774 99 12 0 26.26760138663787 12.79144717534216 13.656000890770839 0 1 0
2775 99 12 0 27.50991783046993 12.62038620187133 14.29665646907096 0 1 0
2615 99 12 0 25.65888294930468 14.05161811409126 13.714162895721874 0 1 0
2616 99 12 0 26.214813643022573 15.05603051764191 14.443044545290888 0 1 0
2776 99 12 0 28.09707612324576 13.716325375461231 14.993501836766537 0 1 0
2787 99 12 0 27.39135732951384 14.911943227254259 15.156113036729984 0 1 0
3004 100 12 0 28.374451604976404 16.21345290068019 12.12308767960791 0 0 0
3019 100 12 0 27.655848596218227 15.19717068612057 11.488480476296576 0 0 0
2763 99 12 0 29.420870162561997 11.313754733070597 14.771530688619013 0 1 0
2777 99 12 0 29.228110525936273 13.505626667493416 15.759062396615835 0 1 0
3012 100 12 0 26.464399618604315 15.519995005778366 10.844927173249033 0 0 0
3020 100 12 0 28.349103361669336 13.99055190198468 11.207224305775577 0 0 0
3005 100 12 0 29.484973317356857 15.912944621284847 12.915485791693754 0 0 0
3021 100 12 0 29.575832927223914 13.74862724652001 11.751483862710128 0 0 0
3006 100 12 0 30.11980309251779 14.647379723083647 12.674393648265944 0 0 0
2966 100 12 0 31.364864876342416 14.418110393162763 13.187899597085696 0 0 0
2979 100 12 0 31.871594993778892 15.31997085456807 14.183563326645002 0 0 0
2980 100 12 0 31.392152457835696 16.638326087348062 14.200865101307363 0 0 0
2978 100 12 0 33.08049543523492 15.062587428274917 14.800628591233455 0 0 0
2764 99 12 0 30.007011273899202 12.36521026911578 15.495267384723611 0 1 0
2989 100 12 0 33.75761959308637 16.003774520463526 15.594514029916855 0 0 0
2964 100 12 0 33.40161709945153 13.250949006680596 13.185702413271322 0 0 0
2977 100 12 0 33.849689489476916 13.992628821326372 14.340003078096366 0 0 0
2965 100 12 0 32.11916339871617 13.41102824055039 12.666114397490908 0 0 0
3035 100 12 0 31.7279338441252 12.77506453170902 11.467922322066284 0 0 0
3022 100 12 0 30.375984128913313 12.801836147524995 11.112553672380379 0 0 0
2952 100 12 0 33.995715063632076 12.234799865025114 11.090050633022903 0 0 0
2963 100 12 0 34.36587890343789 12.60346606739396 12.380123071749734 0 0 0
2976 100 12 0 35.10725406124403 13.743859131551341 14.815477630433875 0 0 0
2971 100 12 0 7.701952260908015 12.144563862417186 13.18291919117735 1 0 0
2983 100 12 0 39.96068020837017 12.372333890853463 15.422997205115085 0 0 0
2958 100 12 0 40.28777991039824 12.38782191665236 11.868084944727912 0 0 0
2972 100 12 0 39.63234248828546 12.067822343355239 14.090186136102654 0 0 0
2975 100 12 0 35.97325212757268 12.821787239097512 14.155727659300922 0 0 0
2974 100 12 0 37.33051305576706 12.73074696256931 14.483219911955759 0 0 0
2987 100 12 0 35.61820086298126 14.516901122181153 15.893940921868328 0 0 0
2985 100 12 0 37.742331485771054 13.348309664521775 15.675761089689153 0 0 0
2973 100 12 0 38.28585628034918 12.131022945916298 13.656969309317018 0 0 0
2962 100 12 0 35.64188548842185 12.38899587223144 12.877685670520883 0 0 0
2960 100 12 0 37.968258480681584 11.956593794426452 12.307185878090028 0 0 0
2959 100 12 0 38.99884336419117 12.216136048164325 11.37621330245815 0 0 0
2961 100 12 0 36.62570653816958 11.994419000274974 11.9519105822224 0 0 0
2940 100 12 0 12.470399083265235 18.989806747009993 11.086666030260915 1 0 0
2939 100 12 0 12.08445712697755 20.11905884383875 11.794560981771461 1 0 0
2927 100 12 0 10.089980302006673 20.345740989820456 10.60527798426909 1 0 0
2926 100 12 0 10.841864001578191 20.722596265863217 11.686255389835138 1 0 0
2916 100 12 0 8.755484009460705 20.837359854274872 43.414292619979626 1 0 -1
2953 100 12 0 11.986607341488604 16.186577332898185 11.14331084598016 1 0 0
1054 48 1 -0.37058 18.03926546314197 16.096857766518525 15.659748561486971 0 1 0
1052 48 4 0.1772 17.364367847837066 18.122852324867633 15.46066647667013 0 1 0
1040 48 4 0.18951 15.481141947154345 16.571050598609162 15.838559483722094 0 1 0
1033 48 1 -0.38667 15.831399749773267 16.870131424805933 14.778397887095855 0 1 0
1043 48 8 0.33245 13.250786021623764 17.22765252849797 15.020447855986092 0 1 0
1034 48 1 -0.17544 14.93880041764598 18.01202831401134 14.265531048967183 0 1 0
1042 48 4 0.16772 15.043554009450267 18.891222893723025 14.881791300331724 0 1 0
1044 48 8 0.3448 12.981065469330332 18.277201437045456 13.78503114198879 0 1 0
1035 48 7 -0.79903 13.577869895246788 17.57050610081444 14.119073838086814 0 1 0
2661 99 12 0 17.47742534576595 21.25353872034358 12.688655966720015 0 1 0
1055 48 4 0.18777 17.563514456950045 15.909892627600914 16.602784091997297 0 1 0
2647 99 12 0 18.314362020322655 19.64151031063969 11.033349616007895 0 1 0
2648 99 12 0 18.4600981080835 20.396187700498828 12.191464510988288 0 1 0
2663 99 12 0 18.342529332954335 21.24538640142375 14.866542233153783 0 1 0
2624 99 12 0 20.952927606457408 17.12042146678953 11.403342360938014 0 1 0
2625 99 12 0 22.131913834722848 16.93948208278233 12.22739260526678 0 1 0
2636 99 12 0 19.146503139605528 18.602708089753882 10.689947902498398 0 1 0
2649 99 12 0 19.558792282766305 20.120563338958387 13.030438787740952 0 1 0
2637 99 12 0 20.329756930580196 18.38096794881485 11.464564388265504 0 1 0
2638 99 12 0 20.53345828973477 19.19073090988303 12.594653390361124 0 1 0
2626 99 12 0 22.51754135681071 17.933021933281495 13.162059776188983 0 1 0
2639 99 12 0 21.669912789641174 18.985987895093437 13.399319217551886 0 1 0
2650 99 12 0 19.48595564975514 20.609055635941168 14.342092025889567 0 1 0
2640 99 12 0 21.61397805300617 19.48265286642578 14.73380719991118 0 1 0
2651 99 12 0 20.49889450320078 20.246870093209488 15.218704677690935 0 1 0
2641 99 12 0 22.540515171448327 18.987057796759633 15.67915485249652 0 1 0
1732 79 4 0.18182 23.166341455292823 20.535487010645348 11.32456109772549 0 0 1
2627 99 12 0 23.598278327418253 17.636386929889962 13.9832488288149 0 1 0
2628 99 12 0 23.677362004862903 18.28927816427564 15.230769600534735 0 1 0
2752 99 12 0 18.94846783338322 16.150681226063345 43.28559931614342 0 1 -1
2621 99 12 0 25.484903155314765 16.22683926400181 14.584853868123197 0 1 0
3011 100 12 0 26.287624578845033 16.870381959805083 43.395585502236585 0 0 -1
1724 79 1 -0.38182 23.71391953600914 21.482922748301313 11.162683764967978 0 0 1
3003 100 12 0 28.217181203185977 17.55948718052201 11.61613328738548 0 0 0
3013 100 12 0 27.259452685697635 17.836180372298923 10.644891828925886 0 0 0
3025 100 12 0 29.261063624077 18.46231229449287 11.85973355591407 0 0 0
2620 99 12 0 24.406596188432868 16.539610645080067 13.727476358557265 0 1 0
1731 79 4 0.21572 25.66331429435698 19.658637806829006 12.141353092841653 0 0 1
1723 79 1 -0.46692 25.9981193813956 20.70654061228111 12.103290430654775 0 0 1
1730 79 4 0.20664 26.539140728520117 20.617854490205488 11.194506726104947 0 0 1
2622 99 12 0 25.72960663226538 17.04247763151456 15.73097802345335 0 1 0
1733 79 4 0.21541 24.190352632568715 21.397424012369484 43.09511945278398 0 0 0
1727 79 6 -0.56991 28.25749198003054 21.14911573858079 12.74810944042446 0 0 1
1718 79 2 0.77363 27.16541565001529 20.91634667279897 13.12308417726011 0 0 1
94 5 5 0.48328 29.234925668022324 22.163387515021366 14.415803012126782 0 0 0
1719 79 3 -0.68333 27.029422116924856 20.8317713455272 14.480886691978926 0 0 1
1722 79 5 0.48328 26.078740514938062 20.711305834623552 14.68704426647697 0 0 1
3023 100 12 0 30.26822900078826 16.966452694209675 13.411536856122634 0 0 0
3026 100 12 0 29.585094807742152 19.31767217398334 10.792019660328133 0 0 0
2990 100 12 0 33.38434700794271 17.369796515653928 15.4793150617673 0 0 0
2863 100 12 0 32.21949712407727 17.67392308814484 14.709484350396473 0 0 0
3024 100 12 0 30.147163469233032 18.23351468440857 12.89350170770326 0 0 0
2864 100 12 0 32.10787249606501 18.934670587429274 14.080444655520424 0 0 0
2865 100 12 0 31.21362216959571 19.072948398344693 13.012659077056366 0 0 0
2868 100 12 0 34.1088406931812 19.59308039626493 15.280698251600857 0 0 0
2869 100 12 0 33.25094633732709 19.749289114427285 14.196783162940703 0 0 0
102 5 4 0.20664 29.33443245854097 19.965650010626184 15.303207804340964 0 0 0
3037 100 12 0 30.855336833221482 19.881863776940214 10.762432919962558 0 0 0
2866 100 12 0 31.669202911059575 19.842081008865055 11.893630552064092 0 0 0
2871 100 12 0 32.96821096768568 20.345953075432103 11.878187690317795 0 0 0
2870 100 12 0 33.69365077340518 20.411624840222338 13.052031099682361 0 0 0
2872 100 12 0 33.51234987227038 20.63016501819786 10.588295854917252 0 0 0
2879 100 12 0 34.84864602152528 20.958801340042733 10.569175166528915 0 0 0
95 5 1 -0.46692 29.98119759025288 20.493899010667697 15.982838776791274 0 0 0
90 5 2 0.77363 30.676701303475358 21.636610035117254 15.49352878797253 0 0 0
2867 100 12 0 34.16177064206178 18.414419931881802 16.017578448404898 0 0 0
2877 100 12 0 34.969960546373244 20.971337710669438 12.969703233605035 0 0 0
2878 100 12 0 35.57151462229611 21.120890051466098 11.737987932219603 0 0 0
2876 100 12 0 35.731588582872575 21.07169022981725 14.156427080790916 0 0 0
2891 100 12 0 36.95337486360752 21.300785844842594 11.658401779834566 0 0 0
2892 100 12 0 37.60651017979535 21.419823297916963 43.37809357316428 0 0 -1
2890 100 12 0 37.71932080983062 21.385166368287997 12.822738724819553 0 0 0
2903 100 12 0 38.98657787648645 21.379797891994407 43.356570211541076 0 0 -1
2889 100 12 0 37.08284837725115 21.430625441880146 14.0506270746745 0 0 0
2875 100 12 0 35.24480122942795 20.473606524819147 15.374218910297841 0 0 0
2899 100 12 0 39.09005427547306 21.96165281496768 15.188176787900971 0 0 0
2888 100 12 0 37.765120963909 21.576866531104766 15.238885939656452 0 0 0
2913 100 12 0 8.149935878386724 22.147232723625205 13.862340172302467 1 0 0
2912 100 12 0 8.884199421122567 22.343250723812652 15.074932809778662 1 0 0
2915 100 12 0 8.142739419349471 21.53464545480707 11.493168721380789 1 0 0
2914 100 12 0 8.872625604882593 21.808633754314865 12.666170291637343 1 0 0
2925 100 12 0 10.226260434211769 21.447973106102005 12.73958317338041 1 0 0
2491 98 12 0 8.08283241543503 25.747730267974738 12.135129926692912 1 0 0
2492 98 12 0 40.205821744386405 25.476761104099467 13.158247366092446 0 0 0
2482 98 12 0 7.65348127453616 25.77127425243532 10.798510051918166 1 0 0
2662 99 12 0 17.289785456989442 21.650221174075313 14.005923302548977 0 1 0
1265 58 8 0.33793 12.15685878864604 23.41617455072126 12.313966926465785 0 0 1
1266 58 8 0.33306 13.232231811408251 24.599157180226392 11.852178043866846 0 0 1
1276 58 4 0.1849 13.922429418042366 26.355931303904427 10.538433321934633 0 0 1
343 16 4 0.17708 16.47058626013618 25.18387100628864 12.401368511282609 0 0 0
334 16 1 -0.38091 16.4904955045411 26.645372340757643 14.103607365428049 0 0 0
345 16 4 0.18117 15.763037976853616 26.076449258770076 14.850032924302091 0 0 0
333 16 1 -0.17576 16.040124539845664 26.203398319552136 12.694042134210907 0 0 0
344 16 4 0.15806 14.909428405518309 26.194981200701356 12.811239763640758 0 0 0
1256 58 7 -0.79111 12.58788501394261 23.86502719584312 11.55337292196929 0 0 1
350 16 1 -0.37058 17.973158856728936 26.185985338788537 14.384315550190767 0 0 0
335 16 4 0.19062 18.848942188046415 24.07374906761629 15.377098944851928 0 0 0
280 13 4 0.18182 16.72568864431596 22.793001807003122 10.897234263922432 0 0 0
283 13 4 0.22795 15.05627817073071 20.729264209498766 10.645018676185439 0 0 0
1734 79 4 0.20587 21.825691286897296 22.370224768442206 43.41909924732892 0 0 0
352 16 4 0.1849 18.066952700118513 25.225561867524483 13.806593474463929 0 0 0
1728 79 6 -0.58244 22.25474516980887 22.462557039903928 13.644228058192825 0 0 1
578 27 5 0.48328 22.835635884870662 22.442538585358243 15.261941810644199 0 0 0
1726 79 2 0.78608 21.76798295531694 22.637207731872813 12.571193036294702 0 0 1
1729 79 3 -0.68598 20.84562191842166 23.644462696035507 12.549142704904073 0 0 1
1736 79 5 0.486 20.627109125401027 23.611910541515805 11.588453293443134 0 0 1
1725 79 1 -0.47583 22.55657365343172 22.55013269547579 11.287347471783422 0 0 1
594 28 1 -0.17544 22.801988719436533 25.68458181516974 14.542910636626125 0 0 0
601 28 4 0.17321 21.648748372956284 25.737580166786223 14.653617184934442 0 0 0
347 16 1 -0.38394 18.274546697759458 26.089527161532303 15.83062869278531 0 0 0
336 16 4 0.18951 20.304611561546608 25.061623346075947 15.47194070777193 0 0 0
593 28 1 -0.38667 23.526477853895322 25.90497634280019 15.87726256219404 0 0 0
604 28 8 0.3448 23.237441460676067 26.522498572190027 12.736322636254364 0 0 0
348 16 4 0.1772 18.621186030110522 27.078352243666426 16.181049018194063 0 0 0
602 28 4 0.16772 22.966432115241002 24.640178495304 14.129776448861861 0 0 0
329 16 1 -0.38667 19.29047262843319 24.891303320413137 15.982286346044244 0 0 0
1735 79 4 0.22795 22.924009741964237 23.59499802905599 11.291546241425747 0 0 1
275 13 6 -0.56991 19.834219104666698 24.109327076553058 43.097674621134324 0 0 -1
1720 79 4 0.20049 24.404250559077006 21.7928345341289 13.225170844335151 0 0 1
1717 79 1 -0.37128 24.82602801181488 21.695457825649914 12.159359745161758 0 0 1
2524 98 12 0 27.621907206137866 25.618273353542225 11.87283699098946 0 0 0
612 28 4 0.1772 25.61336944825506 26.09504063675313 15.281848081852523 0 0 0
2365 98 12 0 28.253583827886295 26.53340416306538 12.704887746353176 0 0 0
2526 98 12 0 25.834634953385077 27.132835711927743 11.355817438166783 0 0 0
607 28 4 0.17708 27.67703688662706 25.940921425809258 15.493307195310077 0 0 0
613 28 4 0.18425 25.057134253410258 24.461050473993897 15.62368060680759 0 0 0
2525 98 12 0 26.41712133490655 25.86557189432454 11.218850770535376 0 0 0
611 28 1 -0.38394 25.037254454693645 25.495918097645777 15.993866151908627 0 0 0
597 28 1 -0.17576 28.08938543017804 25.814633480064536 16.534706596143298 0 0 0
608 28 4 0.15806 28.080805911295002 26.785581635166636 17.039297507321816 0 0 0
1721 79 4 0.19609 25.25770513359087 22.72525201768022 11.916600789684935 0 0 1
2523 98 12 0 28.460866734107572 24.574227591716152 11.407877422176371 0 0 0
91 5 3 -0.68333 30.051981775459595 22.570447236931084 14.728530553524262 0 0 0
2363 98 12 0 30.274429440700498 25.251004478988836 12.876901775205722 0 0 0
2490 98 12 0 31.578110135262232 25.023446779258855 13.36148162223337 0 0 0
2489 98 12 0 32.546491060363806 24.320739879091704 12.533080585236354 0 0 0
2488 98 12 0 33.923460781815166 24.3527626079052 12.91883000289665 0 0 0
2498 98 12 0 33.37815522003404 25.68285123149904 14.851496305021122 0 0 0
2367 98 12 0 32.071855451045124 25.812009826664152 14.414343785897891 0 0 0
2373 98 12 0 33.85884261465988 26.539087682921764 15.900569459608077 0 0 0
2364 98 12 0 29.512132311218355 26.310864941833167 13.279854250643348 0 0 0