LAMMPS data file via write_data, version 29 Aug 2024, timestep = 0, units = real

1056 atoms
7 atom types
1584 bonds
13 bond types
3168 angles
22 angle types
6336 dihedrals
36 dihedral types
1056 impropers
10 improper types

-43.5649369777 43.5649369777 xlo xhi
-40 40 ylo yhi
-40 40 zlo zhi

Atom Type Labels

1 cp
2 hc
3 c=1
4 c=
5 c1
6 c2
7 c3

Bond Type Labels

1 cp-cp
2 cp-hc
3 cp-c1
4 hc-c=1
5 c=1-c=
6 hc-c=
7 cp-c3
8 hc-c3
9 c3-c2
10 hc-c2
11 cp-c=1
12 hc-c1
13 c1-c2

Angle Type Labels

1 cp-cp-cp
2 cp-cp-hc
3 cp-cp-c1
4 cp-c1-hc
5 cp-c1-c2
6 hc-c=1-c=
7 hc-c=-c=1
8 hc-c=-hc
9 cp-cp-c3
10 cp-c3-hc
11 cp-c3-c2
12 hc-c3-c2
13 c3-c2-c1
14 hc-c2-c3
15 hc-c2-hc
16 c1-c2-c1
17 cp-cp-c=1
18 cp-c=1-hc
19 cp-c=1-c=
20 hc-c2-c1
21 hc-c1-c2
22 c2-c1-c2

Dihedral Type Labels

1 cp-cp-cp-cp
2 hc-cp-cp-c1
3 cp-cp-cp-hc
4 cp-cp-cp-c1
5 hc-cp-cp-hc
6 cp-cp-c=1-hc
7 cp-cp-c=1-c=
8 cp-c=1-c=-hc
9 hc-c=1-c=-hc
10 hc-cp-cp-c3
11 cp-cp-cp-c3
12 cp-cp-c1-hc
13 cp-cp-c1-c2
14 cp-c1-c2-hc
15 hc-c1-c2-hc
16 c2-c1-c2-hc
17 cp-c1-c2-c1
18 hc-c1-c2-c1
19 c2-c1-c2-c1
20 hc-cp-cp-c=1
21 cp-cp-cp-c=1
22 cp-cp-c3-hc
23 cp-cp-c3-c2
24 cp-c3-c2-hc
25 cp-c3-c2-c1
26 hc-c3-c2-hc
27 hc-c3-c2-c1
28 c3-c2-c1-cp
29 c3-c2-c1-hc
30 c3-c2-c1-c2
31 hc-c2-c1-cp
32 hc-c2-c1-hc
33 hc-c2-c1-c2
34 c1-c2-c1-cp
35 c1-c2-c1-hc
36 c1-c2-c1-c2

Improper Type Labels

1 cp-cp-cp-cp
2 cp-cp-cp-hc
3 cp-cp-cp-c1
4 cp-c=1-hc-c=
5 hc-c=-hc-c=1
6 cp-cp-cp-c3
7 hc-c2-hc-c1
8 cp-c1-hc-c2
9 cp-cp-cp-c=1
10 cp-c3-hc-c2

Masses

1 12.0112
2 1.00797
3 12.0112
4 12.0112
5 12.0112
6 12.0112
7 12.0112

Pair Coeffs # lj/class2/coul/long

1 0.064 4.01
2 0.02 2.7
3 0.064 4.01
4 0.064 3.9
5 0.054 4.01
6 0.054 4.01
7 0.054 4.01

Bond Coeffs # class2

1 1.417 470.836 -627.618 1327.63
2 1.0982 372.825 -803.453 894.317
3 1.501 321.902 -521.821 572.163
4 1.0883 365.768 -725.54 781.662
5 1.34 543.99 -1238.2 1644.03
6 1.0883 365.768 -725.54 781.662
7 1.501 321.902 -521.821 572.163
8 1.101 345 -691.89 844.6
9 1.53 299.67 -501.77 679.81
10 1.101 345 -691.89 844.6
11 1.501 321.902 -521.821 572.163
12 1.101 345 -691.89 844.6
13 1.53 299.67 -501.77 679.81

Angle Coeffs # class2

1 118.9 61.0226 -34.9931 0
2 117.94 35.1558 -12.4682 0
3 120.05 44.7148 -22.7352 0
4 111 44.3234 -9.4454 0
5 108.4 43.9594 -8.3924 -9.3379
6 124.88 35.2766 -17.774 -1.6215
7 124.88 35.2766 -17.774 -1.6215
8 115.49 29.6363 -12.4853 -6.2218
9 120.05 44.7148 -22.7352 0
10 111 44.3234 -9.4454 0
11 108.4 43.9594 -8.3924 -9.3379
12 110.77 41.453 -10.604 5.129
13 112.67 39.516 -7.443 -9.5583
14 110.77 41.453 -10.604 5.129
15 107.66 39.641 -12.921 -2.4318
16 112.67 39.516 -7.443 -9.5583
17 120.05 44.7148 -22.7352 0
18 111 44.3234 -9.4454 0
19 108.4 43.9594 -8.3924 -9.3379
20 110.77 41.453 -10.604 5.129
21 110.77 41.453 -10.604 5.129
22 112.67 39.516 -7.443 -9.5583

BondBond Coeffs

1 68.2856 1.417 1.417
2 1.0795 1.417 1.0982
3 12.0676 1.417 1.501
4 2.9168 1.501 1.0883
5 0 1.501 1.34
6 10.1047 1.0883 1.34
7 10.1047 1.0883 1.34
8 4.8506 1.0883 1.0883
9 12.0676 1.417 1.501
10 2.9168 1.501 1.101
11 0 1.501 1.53
12 3.3872 1.101 1.53
13 0 1.53 1.53
14 3.3872 1.101 1.53
15 5.3316 1.101 1.101
16 0 1.53 1.53
17 12.0676 1.417 1.501
18 2.9168 1.501 1.101
19 0 1.501 1.53
20 3.3872 1.101 1.53
21 3.3872 1.101 1.53
22 0 1.53 1.53

BondAngle Coeffs

1 28.8708 28.8708 1.417 1.417
2 20.0033 24.2183 1.417 1.0982
3 31.0771 47.0579 1.417 1.501
4 26.4608 11.7717 1.501 1.0883
5 0 0 1.501 1.34
6 19.0592 23.3588 1.0883 1.34
7 19.0592 23.3588 1.0883 1.34
8 17.9795 17.9795 1.0883 1.0883
9 31.0771 47.0579 1.417 1.501
10 26.4608 11.7717 1.501 1.101
11 0 0 1.501 1.53
12 11.421 20.754 1.101 1.53
13 8.016 8.016 1.53 1.53
14 11.421 20.754 1.101 1.53
15 18.103 18.103 1.101 1.101
16 8.016 8.016 1.53 1.53
17 31.0771 47.0579 1.417 1.501
18 26.4608 11.7717 1.501 1.101
19 0 0 1.501 1.53
20 11.421 20.754 1.101 1.53
21 11.421 20.754 1.101 1.53
22 8.016 8.016 1.53 1.53

Dihedral Coeffs # class2

1 8.3667 0 1.1932 0 0 0
2 0 0 1.559 0 0 0
3 0 0 3.9661 0 0 0
4 0 0 4.4072 0 0 0
5 0 0 1.8769 0 0 0
6 0 0 0 0 0 0
7 0 0 0 0 0 0
8 0 0 0 0 0 0
9 0 0 4.8974 0 0 0
10 0 0 1.559 0 0 0
11 0 0 4.4072 0 0 0
12 -0.2801 0 -0.0678 0 -0.0122 0
13 -0.2802 0 -0.0678 0 -0.0122 0
14 -0.0228 0 0.028 0 -0.1863 0
15 -0.1432 0 0.0617 0 -0.1083 0
16 0 0 0.0316 0 -0.1681 0
17 0 0 0 0 0 0
18 0 0 0.0316 0 -0.1681 0
19 0 0 0.0514 0 -0.143 0
20 0 0 1.559 0 0 0
21 0 0 4.4072 0 0 0
22 -0.2801 0 -0.0678 0 -0.0122 0
23 -0.2802 0 -0.0678 0 -0.0122 0
24 -0.0228 0 0.028 0 -0.1863 0
25 0 0 0 0 0 0
26 -0.1432 0 0.0617 0 -0.1083 0
27 0 0 0.0316 0 -0.1681 0
28 0 0 0 0 0 0
29 0 0 0.0316 0 -0.1681 0
30 0 0 0.0514 0 -0.143 0
31 -0.0228 0 0.028 0 -0.1863 0
32 -0.1432 0 0.0617 0 -0.1083 0
33 0 0 0.0316 0 -0.1681 0
34 0 0 0 0 0 0
35 0 0 0.0316 0 -0.1681 0
36 0 0 0.0514 0 -0.143 0

AngleAngleTorsion Coeffs

1 0 118.9 118.9
2 4.4444 117.94 120.05
3 -4.8141 118.9 117.94
4 -14.4097 118.9 120.05
5 0.3598 117.94 117.94
6 0 120.05 111
7 0 120.05 108.4
8 0 108.4 124.88
9 -7.0058 124.88 124.88
10 4.4444 117.94 120.05
11 -14.4097 118.9 120.05
12 -5.8888 120.05 111
13 0 120.05 108.4
14 0 108.4 110.77
15 -12.564 110.77 110.77
16 -16.164 112.67 110.77
17 0 108.4 112.67
18 -16.164 110.77 112.67
19 -22.045 112.67 112.67
20 4.4444 117.94 120.05
21 -14.4097 118.9 120.05
22 -5.8888 120.05 111
23 0 120.05 108.4
24 0 108.4 110.77
25 0 108.4 112.67
26 -12.564 110.77 110.77
27 -16.164 110.77 112.67
28 0 112.67 108.4
29 -16.164 112.67 110.77
30 -22.045 112.67 112.67
31 0 110.77 108.4
32 -12.564 110.77 110.77
33 -16.164 110.77 112.67
34 0 112.67 108.4
35 -16.164 112.67 110.77
36 -22.045 112.67 112.67

EndBondTorsion Coeffs

1 -0.1185 6.3204 0 -0.1185 6.3204 0 1.417 1.417
2 0 -0.4879 0 0 -1.797 0 1.0982 1.501
3 0 -6.8958 0 0 -0.4669 0 1.417 1.0982
4 0 -0.6918 0 0 0.2421 0 1.417 1.501
5 0 -0.689 0 0 -0.689 0 1.0982 1.0982
6 0 0 0 0 0 0 1.417 1.0883
7 0 0 0 0 0 0 1.417 1.34
8 0 0 0 0 0 0 1.501 1.0883
9 0.7129 0.5161 0 0.7129 0.5161 0 1.0883 1.0883
10 0 -0.4879 0 0 -1.797 0 1.0982 1.501
11 0 -0.6918 0 0 0.2421 0 1.417 1.501
12 -0.5835 1.122 0.3978 1.3997 0.7756 0 1.417 1.101
13 0 0 0 0 0 0 1.417 1.53
14 0 0 0 0 0 0 1.501 1.101
15 0.213 0.312 0.0777 0.213 0.312 0.0777 1.101 1.101
16 0.2486 0.2422 -0.0925 0.0814 0.0591 0.2219 1.53 1.101
17 0 0 0 0 0 0 1.501 1.53
18 0.0814 0.0591 0.2219 0.2486 0.2422 -0.0925 1.101 1.53
19 -0.0732 0 0 -0.0732 0 0 1.53 1.53
20 0 -0.4879 0 0 -1.797 0 1.0982 1.501
21 0 -0.6918 0 0 0.2421 0 1.417 1.501
22 -0.5835 1.122 0.3978 1.3997 0.7756 0 1.417 1.101
23 0 0 0 0 0 0 1.417 1.53
24 0 0 0 0 0 0 1.501 1.101
25 0 0 0 0 0 0 1.501 1.53
26 0.213 0.312 0.0777 0.213 0.312 0.0777 1.101 1.101
27 0.0814 0.0591 0.2219 0.2486 0.2422 -0.0925 1.101 1.53
28 0 0 0 0 0 0 1.53 1.501
29 0.2486 0.2422 -0.0925 0.0814 0.0591 0.2219 1.53 1.101
30 -0.0732 0 0 -0.0732 0 0 1.53 1.53
31 0 0 0 0 0 0 1.101 1.501
32 0.213 0.312 0.0777 0.213 0.312 0.0777 1.101 1.101
33 0.0814 0.0591 0.2219 0.2486 0.2422 -0.0925 1.101 1.53
34 0 0 0 0 0 0 1.53 1.501
35 0.2486 0.2422 -0.0925 0.0814 0.0591 0.2219 1.53 1.101
36 -0.0732 0 0 -0.0732 0 0 1.53 1.53

MiddleBondTorsion Coeffs

1 27.5989 -2.312 0 1.417
2 0 3.9421 0 1.417
3 0 -1.1521 0 1.417
4 0 9.1792 0 1.417
5 0 4.8228 0 1.417
6 0 0 0 1.501
7 0 0 0 1.501
8 0 0 0 1.34
9 0.8558 6.3911 0 1.34
10 0 3.9421 0 1.417
11 0 9.1792 0 1.417
12 -5.5679 1.4083 0.301 1.501
13 0 0 0 1.501
14 0 0 0 1.53
15 -14.261 -0.5322 -0.4864 1.53
16 -14.879 -3.6581 -0.3138 1.53
17 0 0 0 1.53
18 -14.879 -3.6581 -0.3138 1.53
19 -17.787 -7.1877 0 1.53
20 0 3.9421 0 1.417
21 0 9.1792 0 1.417
22 -5.5679 1.4083 0.301 1.501
23 0 0 0 1.501
24 0 0 0 1.53
25 0 0 0 1.53
26 -14.261 -0.5322 -0.4864 1.53
27 -14.879 -3.6581 -0.3138 1.53
28 0 0 0 1.53
29 -14.879 -3.6581 -0.3138 1.53
30 -17.787 -7.1877 0 1.53
31 0 0 0 1.53
32 -14.261 -0.5322 -0.4864 1.53
33 -14.879 -3.6581 -0.3138 1.53
34 0 0 0 1.53
35 -14.879 -3.6581 -0.3138 1.53
36 -17.787 -7.1877 0 1.53

BondBond13 Coeffs

1 53 1.417 1.417
2 0.8743 1.0982 1.501
3 -6.2741 1.417 1.0982
4 2.5085 1.417 1.501
5 -1.7077 1.0982 1.0982
6 0 1.417 1.0883
7 0 1.417 1.34
8 0 1.501 1.0883
9 0 1.0883 1.0883
10 0.8743 1.0982 1.501
11 2.5085 1.417 1.501
12 -3.4826 1.417 1.101
13 0 1.417 1.53
14 0 1.501 1.101
15 0 1.101 1.101
16 0 1.53 1.101
17 0 1.501 1.53
18 0 1.101 1.53
19 0 1.53 1.53
20 0.8743 1.0982 1.501
21 2.5085 1.417 1.501
22 -3.4826 1.417 1.101
23 0 1.417 1.53
24 0 1.501 1.101
25 0 1.501 1.53
26 0 1.101 1.101
27 0 1.101 1.53
28 0 1.53 1.501
29 0 1.53 1.101
30 0 1.53 1.53
31 0 1.101 1.501
32 0 1.101 1.101
33 0 1.101 1.53
34 0 1.53 1.501
35 0 1.53 1.101
36 0 1.53 1.53

AngleTorsion Coeffs

1 1.9767 1.0239 0 1.9767 1.0239 0 118.9 118.9
2 0 3.4601 0 0 -0.1242 0 117.94 120.05
3 0 2.5014 0 0 2.7147 0 118.9 117.94
4 0 3.8987 0 0 -4.4683 0 118.9 120.05
5 0 2.4501 0 0 2.4501 0 117.94 117.94
6 0 0 0 0 0 0 120.05 111
7 0 0 0 0 0 0 120.05 108.4
8 0 0 0 0 0 0 108.4 124.88
9 -1.8911 3.254 0 -1.8911 3.254 0 124.88 124.88
10 0 3.4601 0 0 -0.1242 0 117.94 120.05
11 0 3.8987 0 0 -4.4683 0 118.9 120.05
12 0.2251 0.6548 0.1237 4.6266 0.1632 0.0461 120.05 111
13 0 0 0 0 0 0 120.05 108.4
14 0 0 0 0 0 0 108.4 110.77
15 -0.8085 0.5569 -0.2466 -0.8085 0.5569 -0.2466 110.77 110.77
16 -0.2454 0 -0.1136 0.3113 0.4516 -0.1988 112.67 110.77
17 0 0 0 0 0 0 108.4 112.67
18 0.3113 0.4516 -0.1988 -0.2454 0 -0.1136 110.77 112.67
19 0.3886 -0.3139 0.1389 0.3886 -0.3139 0.1389 112.67 112.67
20 0 3.4601 0 0 -0.1242 0 117.94 120.05
21 0 3.8987 0 0 -4.4683 0 118.9 120.05
22 0.2251 0.6548 0.1237 4.6266 0.1632 0.0461 120.05 111
23 0 0 0 0 0 0 120.05 108.4
24 0 0 0 0 0 0 108.4 110.77
25 0 0 0 0 0 0 108.4 112.67
26 -0.8085 0.5569 -0.2466 -0.8085 0.5569 -0.2466 110.77 110.77
27 0.3113 0.4516 -0.1988 -0.2454 0 -0.1136 110.77 112.67
28 0 0 0 0 0 0 112.67 108.4
29 -0.2454 0 -0.1136 0.3113 0.4516 -0.1988 112.67 110.77
30 0.3886 -0.3139 0.1389 0.3886 -0.3139 0.1389 112.67 112.67
31 0 0 0 0 0 0 110.77 108.4
32 -0.8085 0.5569 -0.2466 -0.8085 0.5569 -0.2466 110.77 110.77
33 0.3113 0.4516 -0.1988 -0.2454 0 -0.1136 110.77 112.67
34 0 0 0 0 0 0 112.67 108.4
35 -0.2454 0 -0.1136 0.3113 0.4516 -0.1988 112.67 110.77
36 0.3886 -0.3139 0.1389 0.3886 -0.3139 0.1389 112.67 112.67

Improper Coeffs # class2

1 0 0
2 4.8912 0
3 7.8153 0
4 0 0
5 2.8561 0
6 7.8153 0
7 0 0
8 0 0
9 7.8153 0
10 0 0

AngleAngle Coeffs

1 0 0 0 118.9 118.9 118.9
2 0 0 0 118.9 117.94 117.94
3 0 0 0 118.9 120.05 120.05
4 0 0 0 111 124.88 108.4
5 0 0 0 115.49 124.88 124.88
6 0 0 0 118.9 120.05 120.05
7 0 0 0 107.66 110.77 110.77
8 0 0 0 111 110.77 108.4
9 0 0 0 118.9 120.05 120.05
10 0 0 0 111 110.77 108.4

Atoms # full

1223 20002 1 0.2 -0.38246651531635933 -1.1240554694451532 -6.011479823448305 0 0 0
1397 20002 1 0.2 -1.7117671567785635 -1.8582065230663716 -5.833848218552987 0 0 0
1400 20002 1 0.2 -3.003433281062719 -1.1655877110022317 -6.02739487636444 0 0 0
973 20002 1 0.2 -2.98952286065731 -5.505020728387763 -0.799886208937707 0 0 0
971 20002 1 0.2 -1.6646676178587754 -5.432137739529168 -1.4835188762646467 0 0 0
1399 20002 1 0.2 -1.6449262468365404 -4.976131853563537 -2.9214905342174404 0 0 0
1404 20002 1 0.2 -2.9801904562915595 -4.662437464285084 -3.595537194616597 0 0 0
1402 20002 1 0.2 -2.9966502599592104 -3.7156490342809647 -4.731103865526208 0 0 0
1398 20002 1 0.2 -1.6895912623426455 -3.2023419247478557 -5.148864187007433 0 0 0
1224 20002 1 0.2 -0.36364571381763255 -3.7151864301625466 -4.661788900077227 0 0 0
796 20002 1 0.2 -0.32004676812795196 -5.498959420814977 -0.7402916585371884 0 0 0
1225 20002 1 0.2 -0.33112852602751985 -4.65943874472412 -3.5562964375347192 0 0 0
907 20002 1 0.2 -32.202878569638266 -5.49931187631131 -0.3482984071920967 0 0 0
1357 20002 1 0.2 -29.625096676411275 -4.818841313344741 -3.2149863396752565 0 0 0
1333 20002 1 0.2 -30.92011084695433 -5.160444109541139 -2.5499780808911368 0 0 0
1354 20002 1 0.2 -28.301946429806748 -5.167629999797697 -2.5887859035839966 0 0 0
925 20002 1 0.2 -28.242913372753662 -5.489282967668991 -1.1281257073877313 0 0 0
905 20002 1 0.2 -30.912187183184145 -5.46279052306938 -1.1110052695982304 0 0 0
1338 20002 1 0.2 -32.24972030087338 -4.796487460141648 -3.1473504908060264 0 0 0
1346 20002 1 0.2 -25.721129353861656 -3.3253097296823384 -4.834432802057471 0 0 0
1367 20002 1 0.2 -23.056383151662686 -3.2817632457614394 -4.8120311901187165 0 0 0
1345 20002 1 0.2 -24.373617771387487 -3.913805319832285 -4.435329235259218 0 0 0
1351 20002 1 0.2 -27.020922043456082 -3.835134520445841 -4.3690458784799375 0 0 0
922 20002 1 0.2 -26.904126266941624 -5.667952103674708 -0.47469084448616883 0 0 0
1369 20002 1 0.2 -23.014804584799123 -5.138496034322138 -2.634179219993861 0 0 0
1348 20002 1 0.2 -25.661054585661788 -5.170786276624796 -2.67082351223889 0 0 0
919 20002 1 0.2 -25.602069805302307 -5.616658701283647 -1.219453324301682 0 0 0
940 20002 1 0.2 -22.915092335929614 -5.620408930087478 -1.266685028121863 0 0 0
1353 20002 1 0.2 -27.000937105630634 -4.779242396675045 -3.242375232826717 0 0 0
892 20002 1 0.2 -37.43059324299389 -5.549023032340081 -0.13814581233878442 0 0 0
1347 20002 1 0.2 -24.347117369398802 -4.893387390391801 -3.3111904402560697 0 0 0
916 20002 1 0.2 -24.22335862432287 -5.7216603666676775 -0.5541643489278485 0 0 0
1361 20002 1 0.2 -20.416300385492733 -3.2250157115709044 -4.843029225158077 0 0 0
1382 20002 1 0.2 -17.77930084037115 -3.157456386880071 -4.971835674365217 0 0 0
1366 20002 1 0.2 -21.730967909764757 -3.8089312408006677 -4.365790446177677 0 0 0
1360 20002 1 0.2 -19.05917397686227 -3.702769553096246 -4.473503329066993 0 0 0
931 20002 1 0.2 -18.923748362863208 -5.558520276533407 -0.6630637597902904 0 0 0
937 20002 1 0.2 -21.559798795309945 -5.688135824084675 -0.5810975554217848 0 0 0
934 20002 1 0.2 -20.232238560670325 -5.574256568164309 -1.340058199306597 0 0 0
1362 20002 1 0.2 -19.004576092134812 -4.71326484923415 -3.401986635653955 0 0 0
1368 20002 1 0.2 -21.698604401178926 -4.74843474311038 -3.281986461826385 0 0 0
898 20002 1 0.2 -40.05932646328124 -5.534401704903317 -0.10154068158013274 0 0 0
1384 20002 1 0.2 -17.690706129109785 -5.008306942538383 -2.827627366042023 0 0 0
1363 20002 1 0.2 -20.302300266527084 -5.125305825970393 -2.726598541789528 0 0 0
955 20002 1 0.2 -17.631324257105348 -5.420477316090206 -1.4307209509656005 0 0 0
1371 20002 1 0.2 -12.450095801718533 -3.150316887060633 -5.2577574383781425 0 0 0
1324 20002 1 0.2 -38.74827014586469 -5.048998391158264 -2.268146367175639 0 0 0
1376 20002 1 0.2 -15.129078342103213 -3.0877765123282472 -5.044981724755544 0 0 0
895 20002 1 0.2 -38.768149441344825 -5.4492786623339455 -0.8460319711338471 0 0 0
1375 20002 1 0.2 -13.781709531781004 -3.6609292785347094 -4.706533335850459 0 0 0
1381 20002 1 0.2 -16.451094539845357 -3.689250464414016 -4.613799304912611 0 0 0
944 20002 1 0.2 -12.279005838949814 -5.412964735504119 -1.632465813493134 0 0 0
946 20002 1 0.2 -13.605634691073192 -5.397901380934812 -0.8924995230796071 0 0 0
952 20002 1 0.2 -16.280212103584844 -5.522897208192241 -0.8047987035444919 0 0 0
1372 20002 1 0.2 -12.326079537732866 -4.9293401140820805 -3.0310473365447663 0 0 0
1383 20002 1 0.2 -16.38646255283213 -4.6472903727324635 -3.4570579267428485 0 0 0
1377 20002 1 0.2 -13.722534051438913 -4.58469623209799 -3.5733259529597916 0 0 0
1378 20002 1 0.2 -15.01314057868369 -4.940046150693092 -2.933156056164677 0 0 0
949 20002 1 0.2 -14.955130330626162 -5.372068848023417 -1.5498026938982932 0 0 0
1391 20002 1 0.2 -9.720700936541078 -3.1020245663628643 -5.202859755657045 0 0 0
1386 20002 1 0.2 -7.027287247635215 -3.1400023232677796 -5.24779945575952 0 0 0
1395 20002 1 0.2 -11.05921122647041 -3.6211561379352446 -4.821819807299633 0 0 0
1390 20002 1 0.2 -8.384046834919076 -3.6446720236406662 -4.809706818144704 0 0 0
961 20002 1 0.2 -8.30265952843348 -5.398105360321949 -0.9687129009058069 0 0 0
967 20002 1 0.2 -10.916464656895982 -5.437666234263155 -0.9448980056625658 0 0 0
1393 20002 1 0.2 -9.685324929337469 -4.9139351159334055 -3.10030296207826 0 0 0
964 20002 1 0.2 -9.636647457590442 -5.393319795552522 -1.6980171038934984 0 0 0
959 20002 1 0.2 -6.986437825815841 -5.358524923553716 -1.6475854167968151 0 0 0
1396 20002 1 0.2 -11.00577803553034 -4.579353300949016 -3.742027058994829 0 0 0
1392 20002 1 0.2 -8.326523596965302 -4.580667899865553 -3.6858559460267912 0 0 0
1387 20002 1 0.2 -6.983199047331738 -4.940097032772073 -3.074421682109012 0 0 0
928 20002 1 0.2 -29.57217514217698 -5.545179119878341 -0.404982429547907 0 0 0
1403 20002 1 0.2 -4.326301413583792 -3.172511307278562 -5.2040259901752535 0 0 0
1356 20002 1 0.2 -29.652869010729916 -3.780026799152594 -4.282917163882885 0 0 0
1407 20002 1 0.2 -5.668227604315902 -3.7134562506967512 -4.7835749761939255 0 0 0
1408 20002 1 0.2 -5.644437684376385 -4.634405543157591 -3.6465157247247717 0 0 0
1336 20002 1 0.2 -32.26619257865437 -3.8062142717071907 -4.242267596799977 0 0 0
1332 20002 1 0.2 -30.973914358418284 -3.1849009268824986 -4.676001954341039 0 0 0
1405 20002 1 0.2 -4.322514200978048 -4.936751969854882 -2.957443172840641 0 0 0
976 20002 1 0.2 -4.304311653585486 -5.372531758952434 -1.5486423832510994 0 0 0
1352 20002 1 0.2 -28.336646672696403 -3.2239399844426515 -4.764725252508946 0 0 0
979 20002 1 0.2 -5.648633794127733 -5.413932189014311 -0.9164458092195673 0 0 0
910 20002 1 0.2 -33.52355705810323 -5.558860110761579 -1.0584755874438017 0 0 0
1304 20002 1 0.2 -42.52929830242506 -1.1589588547360279 -5.201081678200943 0 0 0
1325 20002 1 0.2 -39.977556390872486 -1.0585668658710148 -5.184211618957676 0 0 0
1326 20002 1 0.2 -41.27622432074072 -1.7948877894172952 -4.971935145594998 0 0 0
1320 20002 1 0.2 -38.670468615293025 -1.7668347028843314 -5.048354925426096 0 0 0
1319 20002 1 0.2 -37.359260702623146 -1.056551032377186 -5.243815144964756 0 0 0
1340 20002 1 0.2 -34.74453475221898 -1.0783721192918279 -5.404478783419847 0 0 0
1316 20002 1 0.2 -36.05303838444132 -1.7873528346293952 -5.11146249428181 0 0 0
1337 20002 1 0.2 -33.522879215421796 -3.1002419055686516 -4.615771198876061 0 0 0
1321 20002 1 0.2 -37.38080874634421 -3.7152964323758226 -4.042649623249645 0 0 0
1335 20002 1 0.2 -33.48692949417253 -1.7927402140762965 -5.270387544481515 0 0 0
1341 20002 1 0.2 -34.79505428123035 -3.6755150047879255 -4.079062836422864 0 0 0
1317 20002 1 0.2 -36.10444685843727 -3.1109892144517346 -4.50638639266387 0 0 0
1322 20002 1 0.2 -38.667583054998204 -3.1102737427607465 -4.463124248562096 0 0 0
1328 20002 1 0.2 -41.26801490079555 -3.10266605847994 -4.303523944699698 0 0 0
1327 20002 1 0.2 -39.95581768305019 -3.712353781986671 -3.9799429352336944 0 0 0
1355 20002 1 0.2 -29.663271033672174 -1.1238666286430998 -5.530562356187097 0 0 0
1334 20002 1 0.2 -32.21269994888405 -1.1346261364501231 -5.543350960204755 0 0 0
1331 20002 1 0.2 -30.959319408152453 -1.8633695862903181 -5.355742296614444 0 0 0
1350 20002 1 0.2 -28.34490479445038 -1.861882056289062 -5.349076764022179 0 0 0
1342 20002 1 0.2 -34.83959206837916 -4.665920041718721 -3.030091498416269 0 0 0
1323 20002 1 0.2 -37.45186042663295 -4.714074808875182 -2.944818411315971 0 0 0
1306 20002 1 0.2 -42.585622880605285 -3.6660232759759026 -3.838076855102827 0 0 0
1318 20002 1 0.2 -36.12786469695718 -5.051682666505528 -2.347641423947998 0 0 0
890 20002 1 0.2 -36.15636808307602 -5.546229346228273 -0.9233351170649939 0 0 0
1308 20002 1 0.2 -42.60231913701934 -4.677501680504413 -2.7904751360068047 0 0 0
913 20002 1 0.2 -34.851753677770006 -5.637375064893639 -0.2581273685154173 0 0 0
1401 20002 1 0.2 -4.3401255231192835 -1.8420701154056545 -5.855288972659032 0 0 0
1339 20002 1 0.2 -33.536449980703836 -5.11147037328729 -2.4641900923477777 0 0 0
1406 20002 1 0.2 -5.675028103128312 -1.2037601481289073 -6.07066842750023 0 0 0
1329 20002 1 0.2 -40.03949730405181 -4.700170889468502 -2.871284758606599 0 0 0
1330 20002 1 0.2 -41.32764158521184 -5.064618816172761 -2.193286557638352 0 0 0
901 20002 1 0.2 -41.35073395049041 -5.457369039393335 -0.7616039064991114 0 0 0
1343 20002 1 0.2 -24.419430966268422 -1.2433417971422642 -5.457807482244867 0 0 0
1349 20002 1 0.2 -27.04188874018699 -1.2133760720877262 -5.543562946333644 0 0 0
1365 20002 1 0.2 -23.119903880999146 -1.9273427631347246 -5.365284855728028 0 0 0
1344 20002 1 0.2 -25.741801890025982 -1.9510015578309208 -5.376489649702862 0 0 0
1385 20002 1 0.2 -7.044343361574562 -1.8692687727568398 -5.955539291601617 0 0 0
1389 20002 1 0.2 -9.743239209537464 -1.8123119800436598 -5.93636911361682 0 0 0
1388 20002 1 0.2 -8.395742514652511 -1.183440631881325 -6.1399120966962855 0 0 0
1394 20002 1 0.2 -11.125174854328733 -1.1552739915439076 -6.076507977149063 0 0 0
1364 20002 1 0.2 -21.831232310393105 -1.2235142860371582 -5.604932160201528 0 0 0
1358 20002 1 0.2 -19.203504535875737 -1.1718814747981412 -5.6813907830864565 0 0 0
1359 20002 1 0.2 -20.48172051330822 -1.9166318327700864 -5.454103409749862 0 0 0
1380 20002 1 0.2 -17.85477299541462 -1.841916083632924 -5.652288873209635 0 0 0
1373 20002 1 0.2 -13.83099156688371 -1.1529677870604758 -5.950628357408881 0 0 0
1379 20002 1 0.2 -16.520058064687802 -1.1342510946171416 -5.764174800427668 0 0 0
1370 20002 1 0.2 -12.452392340526274 -1.8381487773120568 -5.878046202197524 0 0 0
1374 20002 1 0.2 -15.155853421810292 -1.7665671539310281 -5.676971298606688 0 0 0
467 20002 1 0.2 -3.0255634365156183 -0.3691327139083995 5.193065256496759 0 0 0
350 20002 1 0.2 -0.3610096973529764 -3.0129620310499092 4.344202445652307 0 0 0
798 20002 1 0.2 -0.34359857333403454 -4.138810638808614 3.414996077972141 0 0 0
797 20002 1 0.2 -0.3687868346680432 -5.250743111339553 0.7443398218694952 0 0 0
466 20002 1 0.2 -1.6831743023794417 -1.03808185003615 5.123954801554383 0 0 0
465 20002 1 0.2 -1.6676480758075556 -2.4241905518506854 4.6805190194513315 0 0 0
468 20002 1 0.2 -2.981886712371299 -3.0462818434241754 4.337756311889628 0 0 0
977 20002 1 0.2 -3.0033284479772107 -4.133247227127583 3.356108612861412 0 0 0
972 20002 1 0.2 -1.6716451791632565 -4.537814809220819 2.7641520037173493 0 0 0
970 20002 1 0.2 -1.7265988287877008 -5.161600211850356 1.4383680221260207 0 0 0
974 20002 1 0.2 -3.0433507982754264 -5.438588755547087 0.7041393287664306 0 0 0
349 20002 1 0.2 -0.39375208209418844 -0.3049621670070195 5.273581679823316 0 0 0
906 20002 1 0.2 -30.883880086361827 -4.617127534197564 3.0722081497116207 0 0 0
904 20002 1 0.2 -30.857160875700856 -5.238011214135113 1.756991841765064 0 0 0
929 20002 1 0.2 -29.556557650731676 -5.4414639367268975 1.0588528077239587 0 0 0
908 20002 1 0.2 -32.209645502699416 -5.3888115986980765 1.0940524395725362 0 0 0
912 20002 1 0.2 -33.489827907080986 -4.6410022398544015 3.263106348167547 0 0 0
414 20002 1 0.2 -37.34234681081243 -3.084790628364196 4.999411678017061 0 0 0
428 20002 1 0.2 -34.75539640848109 -3.0907642245060245 4.857633974982811 0 0 0
896 20002 1 0.2 -37.373607330926326 -4.15808020037646 3.920237936616097 0 0 0
915 20002 1 0.2 -34.78960324017922 -4.193420846167129 3.8718641423265794 0 0 0
891 20002 1 0.2 -36.112243330948864 -4.558359839528492 3.273216128956129 0 0 0
897 20002 1 0.2 -38.711990919204375 -4.658874622935826 3.42148268289953 0 0 0
909 20002 1 0.2 -33.5219702455513 -5.237192679647578 1.8877710586928984 0 0 0
889 20002 1 0.2 -36.09839907741083 -5.257120096313706 1.9804869759175219 0 0 0
894 20002 1 0.2 -38.73799040256918 -5.282730563774301 2.0846358502832416 0 0 0
893 20002 1 0.2 -37.429386093851086 -5.472732224977591 1.346876580390962 0 0 0
914 20002 1 0.2 -34.830925130701075 -5.45929940200071 1.2567448930777232 0 0 0
418 20002 1 0.2 -39.91206344895467 -3.050635463021038 5.035144916236597 0 0 0
404 20002 1 0.2 -42.54826680755896 -3.085371659270045 5.118370980792555 0 0 0
881 20002 1 0.2 -42.58042271444731 -4.230365404632721 4.12335972634984 0 0 0
902 20002 1 0.2 -39.98851687664998 -4.210486384446703 4.0489380887500985 0 0 0
903 20002 1 0.2 -41.288321539753355 -4.698821560889897 3.5400580875938985 0 0 0
900 20002 1 0.2 -41.35104691268197 -5.2548215803866825 2.1522733313462297 0 0 0
878 20002 1 0.2 -42.66203007098195 -5.545385929419687 1.512978614819552 0 0 0
899 20002 1 0.2 -40.05836256509222 -5.430902489168304 1.3772154300022734 0 0 0
877 20002 1 0.2 -42.61551920131498 -5.653466881643951 0.010248461594059677 0 0 0
924 20002 1 0.2 -28.236421611249497 -5.281614290669076 1.7024912568694006 0 0 0
911 20002 1 0.2 -32.172574593498695 -4.187710899108787 3.708064595451937 0 0 0
930 20002 1 0.2 -29.505342911015354 -4.211677304990587 3.6160529268935946 0 0 0
927 20002 1 0.2 -28.22287781915999 -4.5720014885389375 3.0046642975304607 0 0 0
424 20002 1 0.2 -32.11414041454647 -3.116176825007308 4.745651004463646 0 0 0
438 20002 1 0.2 -29.432524431039468 -3.087123299910836 4.62995484714812 0 0 0
917 20002 1 0.2 -24.208844221932964 -5.616504329665418 0.906968825196877 0 0 0
923 20002 1 0.2 -26.889121746694002 -5.568827996342094 0.9881295179448841 0 0 0
918 20002 1 0.2 -25.526004986508703 -5.3843646717423965 1.6809243570941916 0 0 0
939 20002 1 0.2 -22.88589630925513 -5.402857483915106 1.5953096552113877 0 0 0
921 20002 1 0.2 -25.538884579408382 -4.7201131413236155 2.96925722460319 0 0 0
942 20002 1 0.2 -22.860038433349075 -4.717545091377936 2.9026624352987582 0 0 0
926 20002 1 0.2 -26.890015075995052 -4.198082550913433 3.5545040770170644 0 0 0
920 20002 1 0.2 -24.16572821112969 -4.226373912504975 3.467635426762321 0 0 0
434 20002 1 0.2 -26.799794777191813 -3.0850708779388114 4.53401089337239 0 0 0
430 20002 1 0.2 -24.146754735210095 -3.077439708851891 4.388180499716121 0 0 0
932 20002 1 0.2 -18.874733696810992 -5.431659207454146 0.7863059592413393 0 0 0
938 20002 1 0.2 -21.581254069029285 -5.515831691968984 0.8699934160491054 0 0 0
954 20002 1 0.2 -17.559493990505004 -5.161022670749908 1.3780531708291832 0 0 0
933 20002 1 0.2 -20.20209501730838 -5.330012000436284 1.5123082764338065 0 0 0
957 20002 1 0.2 -17.576260385398683 -4.514996704522389 2.662826135592134 0 0 0
936 20002 1 0.2 -20.18541824487889 -4.633256149190636 2.7920695867759164 0 0 0
935 20002 1 0.2 -18.867849851138445 -4.121001343937557 3.283513456841824 0 0 0
941 20002 1 0.2 -21.531630465397 -4.248589074729651 3.3932681966680533 0 0 0
444 20002 1 0.2 -21.517944109443107 -3.092809226735234 4.302993961871799 0 0 0
440 20002 1 0.2 -18.870288326420848 -3.056054876825769 4.290530287850949 0 0 0
947 20002 1 0.2 -13.557396924367836 -5.2367471048088206 0.5217784333601401 0 0 0
953 20002 1 0.2 -16.26051545404364 -5.300388619315143 0.6404905866928488 0 0 0
943 20002 1 0.2 -12.284001618560808 -5.04571369512707 1.1990578826588063 0 0 0
948 20002 1 0.2 -14.884127495321607 -5.0030398574538495 1.2094304323546652 0 0 0
951 20002 1 0.2 -14.888541822944262 -4.362091597097262 2.5212000332314304 0 0 0
945 20002 1 0.2 -12.269595421306263 -4.394309240713845 2.4750026368151694 0 0 0
956 20002 1 0.2 -16.243681106002228 -4.041538691233242 3.1021268451878186 0 0 0
950 20002 1 0.2 -13.605937279483314 -3.938989647163723 3.032608124527478 0 0 0
450 20002 1 0.2 -13.590474773848157 -2.9291734371305083 4.082572556286131 0 0 0
454 20002 1 0.2 -16.251292987040543 -2.961313032524032 4.121990358124982 0 0 0
962 20002 1 0.2 -8.270134648605733 -5.328274704194577 0.501655541193216 0 0 0
968 20002 1 0.2 -10.921686414129397 -5.2542794507871875 0.49436537996999874 0 0 0
958 20002 1 0.2 -6.9368826370322125 -5.156356735542822 1.2259039409440007 0 0 0
963 20002 1 0.2 -9.579611363302632 -5.140974583811833 1.209438724948697 0 0 0
960 20002 1 0.2 -6.952495343900409 -4.561914305343414 2.567045137048602 0 0 0
966 20002 1 0.2 -9.58751573756669 -4.502920971621833 2.5314158336297865 0 0 0
969 20002 1 0.2 -10.926395455073788 -4.043440908523543 3.042279476285735 0 0 0
965 20002 1 0.2 -8.277342325008732 -4.091335516436381 3.10763521845832 0 0 0
464 20002 1 0.2 -10.929144492417208 -2.97776341482804 4.09168405599204 0 0 0
460 20002 1 0.2 -8.263674418097452 -3.012800407249074 4.1084528816043 0 0 0
980 20002 1 0.2 -5.620401094408379 -5.302618387683744 0.5974781222106955 0 0 0
975 20002 1 0.2 -4.328198514511826 -5.2208132361179835 1.3701546271899403 0 0 0
978 20002 1 0.2 -4.323942494840281 -4.577386664321644 2.7036430550626065 0 0 0
981 20002 1 0.2 -5.6241054176176135 -4.166761356289129 3.202733772604198 0 0 0
472 20002 1 0.2 -5.649310447876303 -3.0752601775189206 4.155324075822371 0 0 0
419 20002 1 0.2 -41.22481043720342 -2.430317320997979 5.444603741045491 0 0 0
420 20002 1 0.2 -41.23228501505716 -1.0160132917788758 5.87049546188593 0 0 0
417 20002 1 0.2 -39.90987769427207 -0.27913823320737663 5.956488348443052 0 0 0
403 20002 1 0.2 -42.53880586638302 -0.315253084947301 5.933468480855019 0 0 0
415 20002 1 0.2 -38.6497692818749 -2.44017421584536 5.334685419707519 0 0 0
411 20002 1 0.2 -36.02809600424638 -2.4459281952712075 5.291649099008332 0 0 0
416 20002 1 0.2 -38.585180560121444 -1.0371586542944442 5.8022379521860685 0 0 0
412 20002 1 0.2 -35.971830231419865 -1.0799725975678598 5.8200933535895345 0 0 0
425 20002 1 0.2 -33.418131372421094 -2.4610380849247804 5.18416579627722 0 0 0
413 20002 1 0.2 -37.26150313251889 -0.33085584755068 5.885932959279266 0 0 0
427 20002 1 0.2 -34.65500507291927 -0.3265222445622129 5.820778621439267 0 0 0
426 20002 1 0.2 -33.36025680458129 -1.0602176886663273 5.664695714987069 0 0 0
421 20002 1 0.2 -30.776150111553747 -2.4517539866073577 4.951130205981009 0 0 0
435 20002 1 0.2 -28.10832296778969 -2.4512828881687696 4.963958847956853 0 0 0
422 20002 1 0.2 -30.733657481502647 -1.0588250090581681 5.3945772247460795 0 0 0
471 20002 1 0.2 -5.637785996439234 -0.3098788093538758 5.060199952845572 0 0 0
470 20002 1 0.2 -4.332203084324576 -1.0632464756252915 5.11157542571879 0 0 0
436 20002 1 0.2 -28.103605751416346 -1.0741364440471415 5.416815238434204 0 0 0
437 20002 1 0.2 -29.434041677598024 -0.3610837917464096 5.547318840912503 0 0 0
423 20002 1 0.2 -32.02030090793197 -0.34471202310102456 5.62834167741115 0 0 0
445 20002 1 0.2 -22.81344518098021 -2.484271101246641 4.691669179615708 0 0 0
431 20002 1 0.2 -25.4423565557979 -2.474550730670245 4.794446452347948 0 0 0
446 20002 1 0.2 -22.814664337218247 -1.131771173163088 5.249784996015698 0 0 0