LAMMPS (29 Aug 2024 - Development - patch_29Aug2024-566-g224468d946-modified)
Reading data file ...
  orthogonal box = (-43.564937 -40 -40) to (43.564937 40 40)
  4 by 2 by 4 MPI processor grid
  reading atom labelmap ...
  reading bond labelmap ...
  reading angle labelmap ...
  reading dihedral labelmap ...
  reading improper labelmap ...
  reading atoms ...
  1056 atoms
  reading velocities ...
  1056 velocities
  scanning bonds ...
  3 = max bonds/atom
  scanning angles ...
  3 = max angles/atom
  scanning dihedrals ...
  12 = max dihedrals/atom
  scanning impropers ...
  1 = max impropers/atom
  orthogonal box = (-43.564937 -40 -40) to (43.564937 40 40)
  4 by 2 by 4 MPI processor grid
  reading bonds ...
  1584 bonds
  reading angles ...
  3168 angles
  reading dihedrals ...
  6336 dihedrals
  reading impropers ...
  1056 impropers
Finding 1-2 1-3 1-4 neighbors ...
  special bond factors lj:    0        0        1       
  special bond factors coul:  0        0        1       
     3 = max # of 1-2 neighbors
     6 = max # of 1-3 neighbors
    29 = max # of special neighbors
  special bonds CPU = 0.002 seconds
  read_data CPU = 0.112 seconds
Read molecule template styrene:
styrene_molecule
  1 molecules
  0 fragments
  16 atoms with max type 4
  16 bonds with max type 11
  24 angles with max type 19
  32 dihedrals with max type 21
  8 impropers with max type 9
WARNING: Only inserted 999 particles out of 1000 (../create_atoms.cpp:893)
Created 15984 atoms
  using lattice units in orthogonal box = (-43.564937 -40 -40) to (43.564937 40 40)
  create_atoms CPU = 1.327 seconds

CITE-CITE-CITE-CITE-CITE-CITE-CITE-CITE-CITE-CITE-CITE-CITE-CITE

Your simulation uses code contributions which should be cited:
- Type Label Framework: https://doi.org/10.1021/acs.jpcb.3c08419
The log file lists these citations in BibTeX format.

CITE-CITE-CITE-CITE-CITE-CITE-CITE-CITE-CITE-CITE-CITE-CITE-CITE

PPPM initialization ...
WARNING: System is not charge neutral, net charge = 211.0002 (../kspace.cpp:327)
  using 12-bit tables for long-range coulomb (../kspace.cpp:342)
  G vector (1/distance) = 0.27506117
  grid = 36 36 36
  stencil order = 5
  estimated absolute RMS force accuracy = 0.0034350933
  estimated relative force accuracy = 1.0344682e-05
  using double precision KISS FFT
  3d grid and FFT values/proc = 4508 2592
Generated 21 of 21 mixed pair_coeff terms from sixthpower/sixthpower mixing rule
Neighbor list info ...
  update: every = 1 steps, delay = 0 steps, check = yes
  max neighbors/atom: 2000, page size: 100000
  master list distance cutoff = 10.5
  ghost atom cutoff = 10.5
  binsize = 5.25, bins = 17 16 16
  1 neighbor lists, perpetual/occasional/extra = 1 0 0
  (1) pair lj/class2/coul/long, perpetual
      attributes: half, newton on
      pair build: half/bin/newton
      stencil: half/bin/3d
      bin: standard
Setting up cg style minimization ...
  Unit style    : real
  Current step  : 0
WARNING: Inconsistent image flags (../domain.cpp:1051)
Per MPI rank memory allocation (min/avg/max) = 15.06 | 15.08 | 15.17 Mbytes
   Step          Temp          E_pair         E_mol          TotEng         Press     
         0   17.644269      198269.58      172310.43      371476.17      4142.167     
       100   17.644269      185520.01      69053.169      255469.33     -7589.6411    
Loop time of 0.544953 on 32 procs for 100 steps with 17040 atoms

96.9% CPU use with 32 MPI tasks x no OpenMP threads

Minimization stats:
  Stopping criterion = max iterations
  Energy initial, next-to-last, final = 
      370580.014860093    254601.07589041   254573.174228854
  Force two-norm initial, final = 29259.13 197.17728
  Force max component initial, final = 660.08646 15.936135
  Final line search alpha, max atom move = 0.0019101557 0.030440499
  Iterations, force evaluations = 100 187

MPI task timing breakdown:
Section |  min time  |  avg time  |  max time  |%varavg| %total
---------------------------------------------------------------
Pair    | 0.1205     | 0.14554    | 0.17751    |   3.4 | 26.71
Bond    | 0.11927    | 0.14231    | 0.17381    |   4.2 | 26.11
Kspace  | 0.1428     | 0.2057     | 0.25202    |   6.1 | 37.75
Neigh   | 0.012913   | 0.013045   | 0.013178   |   0.1 |  2.39
Comm    | 0.027957   | 0.030136   | 0.032755   |   0.6 |  5.53
Output  | 0.00014068 | 0.00014152 | 0.00015238 |   0.0 |  0.03
Modify  | 0          | 0          | 0          |   0.0 |  0.00
Other   |            | 0.008086   |            |       |  1.48

Nlocal:          532.5 ave         602 max         492 min
Histogram: 5 5 4 6 3 4 2 2 0 1
Nghost:        2763.97 ave        2958 max        2544 min
Histogram: 2 2 4 4 0 6 3 6 3 2
Neighs:        40020.2 ave       48477 max       32721 min
Histogram: 1 3 5 4 7 3 3 3 1 2

Total # of neighbors = 1280648
Ave neighs/atom = 75.155399
Ave special neighs/atom = 8.6482394
Neighbor list builds = 7
Dangerous builds = 0
PPPM initialization ...
  using 12-bit tables for long-range coulomb (../kspace.cpp:342)
  G vector (1/distance) = 0.27506117
  grid = 36 36 36
  stencil order = 5
  estimated absolute RMS force accuracy = 0.0034350933
  estimated relative force accuracy = 1.0344682e-05
  using double precision KISS FFT
  3d grid and FFT values/proc = 4508 2592
Generated 21 of 21 mixed pair_coeff terms from sixthpower/sixthpower mixing rule
Setting up Verlet run ...
  Unit style    : real
  Current step  : 100
  Time step     : 1
WARNING: Inconsistent image flags (../domain.cpp:1051)
Per MPI rank memory allocation (min/avg/max) = 13.95 | 13.97 | 14.06 Mbytes
   Step        Density          Temp          Press           Pxx            Pyy            Pzz             Lx             Ly             Lz      
       100   0.34761281     300           -6414.0378      83.373986     -9638.5794     -9686.9081      87.129874      80             80           
       101   0.34768234     277.62983     -6418.082       72.432835     -9601.5739     -9725.1049      87.129874      79.992         79.992       
       102   0.3477519      229.95613     -6437.2815      4.9856904     -9575.7248     -9741.1053      87.129874      79.984         79.984       
       103   0.34782147     193.11907     -6807.1065     -443.84567     -9926.3378     -10051.136      87.129874      79.976         79.976       
       104   0.34789107     179.46383     -7464.1122     -1201.2026     -10584.984     -10606.15       87.129874      79.968         79.968       
       105   0.34796068     171.93022     -8006.2586     -1825.0564     -11139.649     -11054.07       87.129874      79.96          79.96        
       106   0.34803032     153.22166     -8077.3055     -1922.5584     -11226.996     -11082.362      87.129874      79.952         79.952       
       107   0.34809998     126.11769     -7698.0961     -1512.6649     -10862.377     -10719.246      87.129874      79.944         79.944       
       108   0.34816966     112.42703     -7244.3725     -1004.0157     -10415.315     -10313.787      87.129874      79.936         79.936       
       109   0.34823936     130.40512     -7087.7817     -803.12525     -10254.499     -10205.721      87.129874      79.928         79.928       
       110   0.34830908     166.73969     -7234.2894     -919.66101     -10389.4       -10393.808      87.129874      79.92          79.92        
       111   0.34837882     186.63885     -7400.1477     -1050.9401     -10541.438     -10608.065      87.129874      79.912         79.912       
       112   0.34844858     174.57248     -7431.7646     -1038.3661     -10561.346     -10695.581      87.129874      79.904         79.904       
       113   0.34851837     151.02505     -7499.3551     -1073.2729     -10625.94      -10798.853      87.129874      79.896         79.896       
       114   0.34858817     146.16682     -7817.4068     -1390.947      -10956.438     -11104.836      87.129874      79.888         79.888       
       115   0.348658       163.34589     -8278.7575     -1874.5869     -11445.896     -11515.789      87.129874      79.88          79.88        
       116   0.34872785     180.39488     -8499.4076     -2104.7849     -11704.906     -11688.532      87.129874      79.872         79.872       
       117   0.34879771     179.2411      -8203.7234     -1779.2076     -11451.308     -11380.654      87.129874      79.864         79.864       
       118   0.3488676      163.53359     -7503.4015     -1018.7088     -10787.465     -10704.031      87.129874      79.856         79.856       
       119   0.34893751     155.11172     -6819.3571     -281.46287     -10122.187     -10054.422      87.129874      79.848         79.848       
       120   0.34900744     170.06288     -6505.8636      51.49445      -9803.7834     -9765.3018      87.129874      79.84          79.84        
       121   0.3490774      194.51342     -6536.9252      18.545615     -9814.1411     -9815.18        87.129874      79.832         79.832       
       122   0.34914737     198.86848     -6637.0193     -75.047902     -9892.373      -9943.6371      87.129874      79.824         79.824       
       123   0.34921736     175.26866     -6683.871      -104.60937     -9925.9605     -10021.043      87.129874      79.816         79.816       
       124   0.34928738     147.76451     -6841.1551     -265.27635     -10080.631     -10177.558      87.129874      79.808         79.808       
       125   0.34935741     143.49357     -7262.6465     -736.15141     -10506.917     -10544.871      87.129874      79.8           79.8         
       126   0.34942747     161.06942     -7783.6413     -1337.0152     -11035.47      -10978.439      87.129874      79.792         79.792       
       127   0.34949755     176.99864     -8022.0221     -1641.6234     -11283.199     -11141.244      87.129874      79.784         79.784       
       128   0.34956765     174.66108     -7754.267      -1394.6161     -11028.135     -10840.05       87.129874      79.776         79.776       
       129   0.34963777     159.63881     -7142.3274     -763.85661     -10429.398     -10233.728      87.129874      79.768         79.768       
       130   0.34970791     153.36473     -6603.518      -200.31231     -9896.2259     -9714.0157      87.129874      79.76          79.76        
       131   0.34977807     168.04153     -6431.5889     -22.721566     -9717.4495     -9554.5958      87.129874      79.752         79.752       
       132   0.34984826     187.84417     -6551.1104     -146.33539     -9822.0435     -9684.9524      87.129874      79.744         79.744       
       133   0.34991846     187.53443     -6703.0924     -290.12094     -9957.2719     -9861.8844      87.129874      79.736         79.736       
       134   0.34998869     165.15904     -6808.5514     -381.38997     -10043.266     -10000.998      87.129874      79.728         79.728       
       135   0.35005893     145.10773     -7027.7355     -613.04384     -10236.919     -10233.244      87.129874      79.72          79.72        
       136   0.3501292      148.75015     -7460.5566     -1099.4323     -10640.61      -10641.627      87.129874      79.712         79.712       
       137   0.35019949     169.80564     -7909.8355     -1613.1604     -11064.455     -11051.891      87.129874      79.704         79.704       
       138   0.3502698      185.3152      -8030.2744     -1759.8845     -11171.062     -11159.877      87.129874      79.696         79.696       
       139   0.35034013     182.23163     -7674.9611     -1370.0796     -10817.828     -10836.976      87.129874      79.688         79.688       
       140   0.35041049     169.05681     -7057.5676     -680.40116     -10212.065     -10280.236      87.129874      79.68          79.68        
       141   0.35048086     166.2624      -6577.5797     -136.94506     -9737.7708     -9858.0233      87.129874      79.672         79.672       
       142   0.35055126     181.73896     -6462.4357      8.6165447     -9613.1928     -9782.7308      87.129874      79.664         79.664       
       143   0.35062167     198.3389      -6600.0827     -112.39052     -9734.0857     -9953.772       87.129874      79.656         79.656       
       144   0.35069211     195.10169     -6761.308      -242.4439      -9884.8906     -10156.59       87.129874      79.648         79.648       
       145   0.35076257     174.41991     -6909.369      -350.61902     -10033.622     -10343.866      87.129874      79.64          79.64        
       146   0.35083305     159.29498     -7192.01       -615.47319     -10327.039     -10633.518      87.129874      79.632         79.632       
       147   0.35090355     165.09428     -7652.0235     -1090.126      -10809.972     -11055.973      87.129874      79.624         79.624       
       148   0.35097407     182.00839     -8063.6339     -1521.7395     -11261.021     -11408.141      87.129874      79.616         79.616       
       149   0.35104462     189.34767     -8119.3494     -1568.9113     -11373.856     -11415.281      87.129874      79.608         79.608       
       150   0.35111518     178.9318      -7738.3791     -1146.4566     -11061.007     -11007.674      87.129874      79.6           79.6         
       151   0.35118577     162.46437     -7163.7922     -527.84765     -10550.206     -10413.323      87.129874      79.592         79.592       
       152   0.35125638     159.08584     -6755.6729     -109.75576     -10186.569     -9970.6942      87.129874      79.584         79.584       
       153   0.35132701     172.83018     -6672.2612     -57.565551     -10124.584     -9834.6345      87.129874      79.576         79.576       
       154   0.35139766     186.22504     -6778.458      -210.07246     -10233.572     -9891.7299      87.129874      79.568         79.568       
       155   0.35146833     182.42659     -6885.0432     -354.60444     -10325.143     -9975.3817      87.129874      79.56          79.56        
       156   0.35153902     166.77553     -6996.0878     -503.98017     -10401.133     -10083.151      87.129874      79.552         79.552       
       157   0.35160974     159.48524     -7244.9541     -814.76143     -10600.582     -10319.519      87.129874      79.544         79.544       
       158   0.35168047     169.85406     -7629.0099     -1281.044      -10935.844     -10670.142      87.129874      79.536         79.536       
       159   0.35175123     185.68499     -7917.1916     -1635.5123     -11188.32      -10927.743      87.129874      79.528         79.528       
       160   0.35182201     189.3837      -7858.7631     -1593.5986     -11111.123     -10871.568      87.129874      79.52          79.52        
       161   0.35189281     177.18612     -7440.8266     -1142.7314     -10688.037     -10491.711      87.129874      79.512         79.512       
       162   0.35196363     162.2815      -6922.5053     -576.25905     -10166.597     -10024.66       87.129874      79.504         79.504       
       163   0.35203447     160.85343     -6612.8643     -242.05507     -9839.1523     -9757.3855      87.129874      79.496         79.496       
       164   0.35210534     173.1063      -6605.1182     -241.49298     -9789.2432     -9784.6184      87.129874      79.488         79.488       
       165   0.35217622     182.28218     -6752.1665     -403.12187     -9873.1408     -9980.237       87.129874      79.48          79.48        
       166   0.35224713     176.07322     -6904.2244     -558.29549     -9949.3095     -10205.068      87.129874      79.472         79.472       
       167   0.35231806     162.43809     -7092.2958     -750.58093     -10056.004     -10470.303      87.129874      79.464         79.464       
       168   0.35238901     158.96159     -7423.2401     -1106.2148     -10313.053     -10850.452      87.129874      79.456         79.456       
       169   0.35245998     170.24915     -7848.3508     -1564.5134     -10692.317     -11288.222      87.129874      79.448         79.448       
       170   0.35253097     183.17851     -8133.6061     -1853.2778     -10975.189     -11572.352      87.129874      79.44          79.44        
       171   0.35260198     183.7195      -8077.9022     -1746.4419     -10961.374     -11525.89       87.129874      79.432         79.432       
       172   0.35267302     172.11408     -7718.9246     -1295.263      -10675.07      -11186.441      87.129874      79.424         79.424       
       173   0.35274408     162.0003      -7312.9686     -797.42447     -10351.347     -10790.134      87.129874      79.416         79.416       
       174   0.35281515     165.77054     -7111.6069     -538.27185     -10225.316     -10571.233      87.129874      79.408         79.408       
       175   0.35288625     179.97908     -7154.739      -556.23854     -10333.507     -10574.471      87.129874      79.4           79.4         
       176   0.35295738     188.92223     -7300.3246     -685.85098     -10535.757     -10679.365      87.129874      79.392         79.392       
       177   0.35302852     184.17388     -7443.3764     -816.0513      -10721.001     -10793.077      87.129874      79.384         79.384       
       178   0.35309968     174.89519     -7635.4302     -1020.4488     -10931.84      -10954.002      87.129874      79.376         79.376       
       179   0.35317087     175.34303     -7955.0464     -1391.7426     -11253.385     -11220.012      87.129874      79.368         79.368       
       180   0.35324208     186.38998     -8320.2287     -1823.3708     -11625.848     -11511.468      87.129874      79.36          79.36        
       181   0.3533133      195.24943     -8509.42       -2050.6118     -11844.853     -11632.795      87.129874      79.352         79.352       
       182   0.35338456     191.42902     -8372.2277     -1902.7285     -11760.306     -11453.648      87.129874      79.344         79.344       
       183   0.35345583     177.9852      -7983.9125     -1472.374      -11434.592     -11044.772      87.129874      79.336         79.336       
       184   0.35352712     167.89904     -7586.5025     -1037.8168     -11091.339     -10630.352      87.129874      79.328         79.328       
       185   0.35359844     170.24777     -7380.1205     -822.80374     -10915.394     -10402.164      87.129874      79.32          79.32        
       186   0.35366977     179.87754     -7372.9817     -829.33372     -10910.03      -10379.582      87.129874      79.312         79.312       
       187   0.35374113     183.83592     -7447.3007     -919.8833      -10959.371     -10462.648      87.129874      79.304         79.304       
       188   0.35381251     178.12548     -7547.2038     -1037.8428     -11006.829     -10596.94       87.129874      79.296         79.296       
       189   0.35388391     172.79238     -7738.9573     -1269.9656     -11119.693     -10827.213      87.129874      79.288         79.288       
       190   0.35395534     178.34373     -8068.8888     -1667.4333     -11362.061     -11177.172      87.129874      79.28          79.28        
       191   0.35402678     191.87756     -8425.1265     -2085.0531     -11652.846     -11537.481      87.129874      79.272         79.272       
       192   0.35409825     200.80936     -8601.3493     -2271.7978     -11806.385     -11725.865      87.129874      79.264         79.264       
       193   0.35416973     197.4062      -8489.8168     -2106.3562     -11712.583     -11650.511      87.129874      79.256         79.256       
       194   0.35424124     186.16957     -8183.4549     -1710.4765     -11443.349     -11396.539      87.129874      79.248         79.248       
       195   0.35431278     178.04925     -7887.7279     -1335.4345     -11178.121     -11149.628      87.129874      79.24          79.24        
       196   0.35438433     178.43599     -7740.6576     -1145.1434     -11040.884     -11035.946      87.129874      79.232         79.232       
       197   0.3544559      181.44892     -7723.3035     -1113.4257     -11014.32      -11042.165      87.129874      79.224         79.224       
       198   0.3545275      178.10735     -7750.0085     -1137.8558     -11015.791     -11096.379      87.129874      79.216         79.216       
       199   0.35459912     169.03579     -7813.3921     -1214.1712     -11032.961     -11193.044      87.129874      79.208         79.208       
       200   0.35467076     164.70402     -7989.3219     -1434.998      -11141.485     -11391.483      87.129874      79.2           79.2         
       201   0.35474242     172.26379     -8297.1807     -1814.4087     -11382.727     -11694.406      87.129874      79.192         79.192       
       202   0.3548141      186.45057     -8612.2571     -2186.184      -11667.068     -11983.519      87.129874      79.184         79.184       
       203   0.35488581     195.82771     -8756.6686     -2329.2337     -11836.563     -12104.209      87.129874      79.176         79.176       
       204   0.35495753     195.08583     -8663.5558     -2173.1551     -11817.8       -11999.712      87.129874      79.168         79.168       
       205   0.35502928     189.08136     -8431.3749     -1854.7001     -11685.746     -11753.679      87.129874      79.16          79.16        
       206   0.35510105     185.95626     -8221.7494     -1580.9759     -11576.51      -11507.762      87.129874      79.152         79.152       
       207   0.35517285     187.6556      -8116.0294     -1451.0703     -11554.449     -11342.569      87.129874      79.144         79.144       
       208   0.35524466     188.1097      -8078.1009     -1415.1045     -11574.937     -11244.261      87.129874      79.136         79.136       
       209   0.35531649     181.76606     -8052.6884     -1400.5458     -11575         -11182.519      87.129874      79.128         79.128       
       210   0.35538835     172.31162     -8066.392      -1439.4553     -11572.773     -11186.947      87.129874      79.12          79.12        
       211   0.35546023     169.41957     -8192.0861     -1622.5966     -11644.225     -11309.437      87.129874      79.112         79.112       
       212   0.35553213     176.93894     -8422.8017     -1936.6445     -11807.471     -11524.29       87.129874      79.104         79.104       
       213   0.35560405     188.14437     -8630.1604     -2212.0713     -11968.518     -11709.892      87.129874      79.096         79.096       
       214   0.355676       193.67048     -8671.4861     -2267.3397     -12004.005     -11743.113      87.129874      79.088         79.088       
       215   0.35574797     191.21404     -8519.3262     -2076.595      -11880.612     -11600.772      87.129874      79.08          79.08        
       216   0.35581995     186.23073     -8272.0925     -1776.2113     -11673.578     -11366.488      87.129874      79.072         79.072       
       217   0.35589196     184.58088     -8048.2318     -1522.7326     -11475.456     -11146.507      87.129874      79.064         79.064       
       218   0.355964       185.77654     -7883.8801     -1361.0898     -11306.433     -10984.117      87.129874      79.056         79.056       
       219   0.35603605     184.10505     -7738.4567     -1234.8724     -11122.338     -10858.159      87.129874      79.048         79.048       
       220   0.35610813     176.77814     -7591.2816     -1112.5788     -10903.158     -10758.108      87.129874      79.04          79.04        
       221   0.35618022     169.15043     -7500.1352     -1062.9746     -10707.959     -10729.472      87.129874      79.032         79.032       
       222   0.35625234     169.13456     -7535.3939     -1169.013      -10620.649     -10816.52       87.129874      79.024         79.024       
       223   0.35632448     177.49897     -7672.7991     -1389.2003     -10649.224     -10979.973      87.129874      79.016         79.016       
       224   0.35639665     186.98724     -7791.3607     -1558.6532     -10706.69      -11108.739      87.129874      79.008         79.008       
       225   0.35646883     190.91721     -7785.9302     -1540.5198     -10701.181     -11116.09       87.129874      79             79           
       226   0.35654104     189.99982     -7661.0774     -1349.3657     -10625.549     -11008.317      87.129874      78.992         78.992       
       227   0.35661327     190.06072     -7506.9768     -1117.2009     -10543.26      -10860.47       87.129874      78.984         78.984       
       228   0.35668552     194.65097     -7399.211      -955.83175     -10504.627     -10737.174      87.129874      78.976         78.976       
       229   0.35675779     200.96356     -7336.691      -868.86157     -10497.236     -10643.976      87.129874      78.968         78.968       
       230   0.35683009     203.17662     -7279.3449     -799.57775     -10480.625     -10557.832      87.129874      78.96          78.96        
       231   0.35690241     199.7331      -7232.8913     -747.17538     -10458.257     -10493.242      87.129874      78.952         78.952       
       232   0.35697474     195.59377     -7267.1666     -797.03199     -10494.643     -10509.825      87.129874      78.944         78.944       
       233   0.3570471      195.63085     -7432.8134     -1013.3416     -10645.548     -10639.551      87.129874      78.936         78.936       
       234   0.35711949     197.89081     -7681.0764     -1330.9613     -10882.678     -10829.59       87.129874      78.928         78.928       
       235   0.35719189     196.02461     -7896.4605     -1594.5496     -11112.541     -10982.291      87.129874      78.92          78.92        
       236   0.35726432     187.31262     -8004.3009     -1702.2687     -11269.479     -11041.155      87.129874      78.912         78.912       
       237   0.35733677     176.15179     -8026.9332     -1687.0537     -11368.25      -11025.496      87.129874      78.904         78.904       
       238   0.35740924     169.46793     -8034.9378     -1656.2905     -11458.252     -10990.271      87.129874      78.896         78.896       
       239   0.35748173     169.97381     -8061.4221     -1672.1697     -11549.317     -10962.779      87.129874      78.888         78.888       
       240   0.35755425     174.46152     -8077.4286     -1706.8347     -11598.835     -10926.616      87.129874      78.88          78.88        
       241   0.35762679     178.30793     -8048.624      -1711.7706     -11564.713     -10869.388      87.129874      78.872         78.872       
       242   0.35769934     181.2603      -8001.1461     -1710.2763     -11462.279     -10830.883      87.129874      78.864         78.864       
       243   0.35777193     187.15327     -8006.3754     -1786.2247     -11358.104     -10874.797      87.129874      78.856         78.856       
       244   0.35784453     197.19619     -8092.8389     -1969.0009     -11301.462     -11008.054      87.129874      78.848         78.848       
       245   0.35791716     206.35955     -8198.231      -2163.1029     -11274.934     -11156.656      87.129874      78.84          78.84        
       246   0.3579898      208.35168     -8227.5696     -2223.9398     -11223.903     -11234.866      87.129874      78.832         78.832       
       247   0.35806247     202.47008     -8145.8082     -2093.3656     -11125.849     -11218.21       87.129874      78.824         78.824       
       248   0.35813516     194.02625     -7997.7563     -1838.1332     -11012.986     -11142.149      87.129874      78.816         78.816       
       249   0.35820788     188.67467     -7844.9395     -1564.8991     -10922.099     -11047.82       87.129874      78.808         78.808       
       250   0.35828062     187.30003     -7700.4469     -1319.259      -10841.337     -10940.745      87.129874      78.8           78.8         
       251   0.35835337     186.42672     -7533.6487     -1073.303      -10723.588     -10804.055      87.129874      78.792         78.792       
       252   0.35842615     183.25818     -7334.2135     -806.73806     -10548.055     -10647.848      87.129874      78.784         78.784       
       253   0.35849896     179.83551     -7155.9372     -578.63237     -10358.368     -10530.812      87.129874      78.776         78.776       
       254   0.35857178     180.60215     -7075.1245     -482.78423     -10231.118     -10511.471      87.129874      78.768         78.768       
       255   0.35864463     185.81987     -7104.1161     -530.54147     -10202.697     -10579.11       87.129874      78.76          78.76        
       256   0.3587175      190.26301     -7171.4482     -618.41537     -10239.023     -10656.906      87.129874      78.752         78.752       
       257   0.35879039     189.50308     -7197.3056     -629.17471     -10285.253     -10677.489      87.129874      78.744         78.744       
       258   0.3588633      185.19292     -7169.8356     -543.10292     -10330.423     -10635.981      87.129874      78.736         78.736       
       259   0.35893624     182.85476     -7135.2958     -434.2784      -10404.218     -10567.391      87.129874      78.728         78.728       
       260   0.3590092      185.73164     -7129.3329     -374.82419     -10517.777     -10495.397      87.129874      78.72          78.72        
       261   0.35908218     191.78702     -7135.7749     -363.20329     -10629.908     -10414.214      87.129874      78.712         78.712       
       262   0.35915518     196.20312     -7115.7628     -349.44708     -10683.816     -10314.026      87.129874      78.704         78.704       
       263   0.35922821     196.6245      -7071.3685     -322.44786     -10670.469     -10221.189      87.129874      78.696         78.696       
       264   0.35930125     195.79592     -7066.3629     -350.69348     -10645.748     -10202.647      87.129874      78.688         78.688       
       265   0.35937432     197.60936     -7165.1621     -510.54026     -10678.313     -10306.633      87.129874      78.68          78.68        
       266   0.35944741     201.19715     -7355.6017     -781.67073     -10783.995     -10501.14       87.129874      78.672         78.672       
       267   0.35952053     201.68261     -7555.0793     -1046.7754     -10920.739     -10697.723      87.129874      78.664         78.664       
       268   0.35959367     196.87089     -7694.4029     -1202.2829     -11044.033     -10836.893      87.129874      78.656         78.656       
       269   0.35966682     190.62412     -7773.8291     -1246.1569     -11148.143     -10927.188      87.129874      78.648         78.648       
       270   0.35974001     188.62782     -7831.3543     -1246.9622     -11247.333     -10999.768      87.129874      78.64          78.64        
       271   0.35981321     192.43166     -7877.39       -1248.6271     -11331.71      -11051.833      87.129874      78.632         78.632       
       272   0.35988643     198.54097     -7878.9578     -1230.3959     -11357.015     -11049.463      87.129874      78.624         78.624       
       273   0.35995968     202.3054      -7805.3173     -1155.0569     -11285.297     -10975.598      87.129874      78.616         78.616       
       274   0.36003295     202.58047     -7682.6775     -1042.7361     -11135.296     -10870.001      87.129874      78.608         78.608       
       275   0.36010625     202.71414     -7591.7788     -983.45748     -10981.169     -10810.71       87.129874      78.6           78.6         
       276   0.36017956     205.71039     -7595.5612     -1054.3412     -10891.519     -10840.824      87.129874      78.592         78.592       
       277   0.3602529      209.36561     -7674.322      -1228.7737     -10871.731     -10922.461      87.129874      78.584         78.584       
       278   0.36032626     208.58288     -7750.6798     -1395.0109     -10875.587     -10981.441      87.129874      78.576         78.576       
       279   0.36039964     202.12492     -7773.9731     -1468.0325     -10868.739     -10985.148      87.129874      78.568         78.568       
       280   0.36047305     194.59002     -7758.3769     -1458.8246     -10861.505     -10954.801      87.129874      78.56          78.56        
       281   0.36054647     191.17332     -7737.6874     -1427.8857     -10875.26      -10909.917      87.129874      78.552         78.552       
       282   0.36061992     192.37978     -7707.7634     -1398.7323     -10893.909     -10830.649      87.129874      78.544         78.544       
       283   0.3606934      194.67607     -7631.1883     -1339.4703     -10867.909     -10686.186      87.129874      78.536         78.536       
       284   0.36076689     195.01991     -7492.8256     -1220.837      -10768.766     -10488.874      87.129874      78.528         78.528       
       285   0.36084041     194.29397     -7340.4978     -1079.1603     -10630.657     -10311.676      87.129874      78.52          78.52        
       286   0.36091395     196.38183     -7260.8931     -1009.576      -10530.564     -10242.539      87.129874      78.512         78.512       
       287   0.36098751     202.98693     -7303.6186     -1076.8644     -10524.878     -10309.113      87.129874      78.504         78.504       
       288   0.36106109     210.30848     -7434.1233     -1238.1488     -10609.325     -10454.896      87.129874      78.496         78.496       
       289   0.3611347      212.67474     -7573.7706     -1380.7499     -10741.401     -10599.161      87.129874      78.488         78.488       
       290   0.36120833     208.92005     -7677.8199     -1434.5433     -10891.82      -10707.096      87.129874      78.48          78.48        
       291   0.36128198     203.1325      -7755.4787     -1418.1266     -11057.04      -10791.27       87.129874      78.472         78.472       
       292   0.36135566     199.12475     -7818.2114     -1375.4205     -11222.136     -10857.077      87.129874      78.464         78.464       
       293   0.36142935     196.3288      -7836.6212     -1302.9843     -11336.343     -10870.536      87.129874      78.456         78.456       
       294   0.36150307     191.82047     -7764.8158     -1161.1097     -11342.773     -10790.564      87.129874      78.448         78.448       
       295   0.36157682     184.8739      -7600.6549     -943.92138     -11229.033     -10629.01       87.129874      78.44          78.44        
       296   0.36165058     178.9724      -7411.7713     -723.47788     -11045.307     -10466.529      87.129874      78.432         78.432       
       297   0.36172437     179.18952     -7293.0602     -613.24159     -10872.998     -10392.941      87.129874      78.424         78.424       
       298   0.36179818     186.72563     -7289.927      -672.62167     -10770.298     -10426.861      87.129874      78.416         78.416       
       299   0.36187201     197.01889     -7367.549      -851.24587     -10742.356     -10509.045      87.129874      78.408         78.408       
       300   0.36194587     204.46877     -7461.0643     -1043.6519     -10762.343     -10577.198      87.129874      78.4           78.4         
       301   0.36201974     208.18905     -7543.3952     -1190.0168     -10813.362     -10626.807      87.129874      78.392         78.392       
       302   0.36209364     211.61576     -7628.7166     -1303.0109     -10894.88      -10688.258      87.129874      78.384         78.384       
       303   0.36216757     216.94142     -7718.6387     -1405.8372     -10987.918     -10762.161      87.129874      78.376         78.376       
       304   0.36224151     222.1688      -7773.8924     -1479.8992     -11039.315     -10802.463      87.129874      78.368         78.368       
       305   0.36231548     224.02729     -7751.888      -1487.0873     -10999.194     -10769.383      87.129874      78.36          78.36        
       306   0.36238947     222.2055      -7664.0421     -1430.334      -10874.67      -10687.122      87.129874      78.352         78.352       
       307   0.36246349     220.25809     -7585.9359     -1379.4857     -10740.766     -10637.556      87.129874      78.344         78.344       
       308   0.36253752     222.10528     -7601.8905     -1425.62       -10690.7       -10689.351      87.129874      78.336         78.336       
       309   0.36261158     227.16822     -7733.0623     -1597.3764     -10767.467     -10834.344      87.129874      78.328         78.328       
       310   0.36268566     230.29435     -7925.7952     -1829.0107     -10943.571     -11004.804      87.129874      78.32          78.32        
       311   0.36275977     227.29882     -8111.0476     -2023.0249     -11162.809     -11147.309      87.129874      78.312         78.312       
       312   0.3628339      219.55592     -8261.9856     -2134.5067     -11388.888     -11262.562      87.129874      78.304         78.304       
       313   0.36290804     212.16895     -8384.1583     -2179.5227     -11602.904     -11370.048      87.129874      78.296         78.296       
       314   0.36298222     208.22422     -8464.4377     -2174.377      -11767.702     -11451.234      87.129874      78.288         78.288       
       315   0.36305641     206.62354     -8457.8759     -2097.7953     -11825.625     -11450.207      87.129874      78.28          78.28        
       316   0.36313063     205.28725     -8334.291      -1923.1043     -11745.158     -11334.611      87.129874      78.272         78.272       
       317   0.36320487     204.65217     -8128.7893     -1676.1113     -11563.288     -11146.969      87.129874      78.264         78.264       
       318   0.36327914     207.80172     -7937.1536     -1448.9186     -11372.298     -10990.245      87.129874      78.256         78.256       
       319   0.36335342     216.69205     -7850.75       -1345.0092     -11257.358     -10949.883      87.129874      78.248         78.248       
       320   0.36342773     228.02609     -7888.5457     -1397.5413     -11242.945     -11025.151      87.129874      78.24          78.24        
       321   0.36350206     234.87245     -7998.8933     -1548.3843     -11299.527     -11148.769      87.129874      78.232         78.232       
       322   0.36357642     232.99904     -8124.0685     -1714.0958     -11391.319     -11266.79       87.129874      78.224         78.224       
       323   0.3636508      224.51765     -8247.1254     -1857.6635     -11505.804     -11377.908      87.129874      78.216         78.216       
       324   0.3637252      214.85366     -8370.6788     -1983.099      -11633.704     -11495.233      87.129874      78.208         78.208       
       325   0.36379962     207.03936     -8470.4873     -2079.7735     -11737.118     -11594.571      87.129874      78.2           78.2         
       326   0.36387407     200.3984      -8496.1679     -2103.8714     -11759.949     -11624.683      87.129874      78.192         78.192       
       327   0.36394853     193.95241     -8423.3796     -2024.1357     -11676.656     -11569.347      87.129874      78.184         78.184       
       328   0.36402303     189.21702     -8295.4413     -1874.5476     -11526.001     -11485.775      87.129874      78.176         78.176       
       329   0.36409754     189.67474     -8206.4895     -1753.4054     -11394.684     -11471.379      87.129874      78.168         78.168       
       330   0.36417208     196.96448     -8231.8272     -1756.6664     -11358.373     -11580.442      87.129874      78.16          78.16        
       331   0.36424664     207.47126     -8369.0637     -1900.1772     -11431.854     -11775.16       87.129874      78.152         78.152       
       332   0.36432122     214.88361     -8552.2985     -2114.1607     -11575.419     -11967.316      87.129874      78.144         78.144       
       333   0.36439583     216.22346     -8718.1363     -2314.9102     -11741.776     -12097.723      87.129874      78.136         78.136       
       334   0.36447046     214.23359     -8844.0739     -2463.8593     -11905.652     -12162.71       87.129874      78.128         78.128       
       335   0.36454511     213.69271     -8924.5247     -2553.7527     -12046.691     -12173.13       87.129874      78.12          78.12        
       336   0.36461979     216.15364     -8931.5598     -2566.4122     -12118.313     -12109.954      87.129874      78.112         78.112       
       337   0.36469448     219.4144      -8824.1823     -2472.8657     -12061.696     -11937.986      87.129874      78.104         78.104       
       338   0.3647692      221.21506     -8599.3217     -2274.3686     -11860.23      -11663.367      87.129874      78.096         78.096       
       339   0.36484395     221.91678     -8322.3847     -2033.6446     -11571.026     -11362.484      87.129874      78.088         78.088       
       340   0.36491872     223.85462     -8099.406      -1858.6898     -11297.986     -11141.542      87.129874      78.08          78.08        
       341   0.36499351     227.92101     -8006.7986     -1835.2264     -11127.443     -11057.726      87.129874      78.072         78.072       
       342   0.36506832     231.05319     -8041.599      -1961.1317     -11081.602     -11082.063      87.129874      78.064         78.064       
       343   0.36514315     228.94934     -8142.6244     -2154.2183     -11128.656     -11144.999      87.129874      78.056         78.056       
       344   0.36521801     221.08078     -8252.674      -2327.0409     -11226.748     -11204.233      87.129874      78.048         78.048       
       345   0.36529289     211.84438     -8349.2379     -2441.5931     -11347.367     -11258.754      87.129874      78.04          78.04        
       346   0.3653678      206.33341     -8419.6028     -2490.7532     -11457.888     -11310.168      87.129874      78.032         78.032       
       347   0.36544273     205.63624     -8429.6896     -2454.9384     -11505.882     -11328.249      87.129874      78.024         78.024       
       348   0.36551768     207.08727     -8339.7852     -2305.0249     -11445.52      -11268.811      87.129874      78.016         78.016       
       349   0.36559265     208.12529     -8152.4547     -2047.0224     -11282.706     -11127.636      87.129874      78.008         78.008       
       350   0.36566765     208.87608     -7934.1822     -1750.0789     -11086.314     -10966.154      87.129874      78             78           
       351   0.36574267     211.32847     -7781.0575     -1520.1204     -10949.668     -10873.384      87.129874      77.992         77.992       
       352   0.36581771     216.09398     -7752.4312     -1430.8591     -10931.489     -10894.946      87.129874      77.984         77.984       
       353   0.36589278     220.6429      -7834.3599     -1473.6416     -11027.506     -11001.932      87.129874      77.976         77.976       
       354   0.36596787     221.99762     -7967.2606     -1579.7379     -11190.659     -11131.385      87.129874      77.968         77.968       
       355   0.36604298     220.53858     -8100.7357     -1688.3251     -11370.446     -11243.436      87.129874      77.96          77.96        
       356   0.36611812     220.00162     -8213.6046     -1778.0941     -11530.97      -11331.749      87.129874      77.952         77.952       
       357   0.36619328     223.3844      -8289.3853     -1838.4431     -11641.08      -11388.633      87.129874      77.944         77.944       
       358   0.36626846     229.62688     -8294.7014     -1842.3258     -11663.944     -11377.834      87.129874      77.936         77.936       
       359   0.36634366     234.77329     -8198.6137     -1764.7124     -11571.02      -11260.109      87.129874      77.928         77.928       
       360   0.36641889     235.6704      -8012.1133     -1619.8714     -11370.412     -11046.056      87.129874      77.92          77.92        
       361   0.36649414     232.35909     -7801.5555     -1472.3863     -11117.389     -10814.891      87.129874      77.912         77.912       
       362   0.36656942     227.30207     -7654.2925     -1405.5184     -10890.231     -10667.129      87.129874      77.904         77.904       
       363   0.36664472     222.35238     -7620.9643     -1466.0697     -10748.219     -10648.604      87.129874      77.896         77.896       
       364   0.36672004     217.22633     -7688.6968     -1631.9811     -10709.219     -10724.891      87.129874      77.888         77.888       
       365   0.36679538     211.52662     -7809.0581     -1835.5876     -10759.803     -10831.784      87.129874      77.88          77.88        
       366   0.36687075     207.18167     -7943.0471     -2017.9729     -10876.671     -10934.497      87.129874      77.872         77.872       
       367   0.36694614     207.74361     -8074.403      -2156.0394     -11034.912     -11032.257      87.129874      77.864         77.864       
       368   0.36702156     214.726       -8186.4161     -2239.3934     -11198.147     -11121.708      87.129874      77.856         77.856       
       369   0.36709699     225.452       -8246.5726     -2246.9639     -11315.578     -11177.176      87.129874      77.848         77.848       
       370   0.36717245     235.03511     -8226.6205     -2161.1156     -11344.845     -11173.901      87.129874      77.84          77.84        
       371   0.36724794     239.92136     -8134.1069     -1996.2265     -11282.422     -11123.673      87.129874      77.832         77.832       
       372   0.36732344     239.71101     -8018.1874     -1806.4024     -11171.644     -11076.516      87.129874      77.824         77.824       
       373   0.36739898     236.41788     -7940.1034     -1659.9502     -11078.469     -11081.891      87.129874      77.816         77.816       
       374   0.36747453     232.03828     -7929.6766     -1594.7421     -11049.799     -11144.489      87.129874      77.808         77.808       
       375   0.36755011     227.02913     -7967.6842     -1590.8372     -11090.844     -11221.372      87.129874      77.8           77.8         
       376   0.36762571     221.64673     -8011.2615     -1591.6391     -11176.879     -11265.267      87.129874      77.792         77.792       
       377   0.36770133     217.70164     -8031.3881     -1555.7914     -11275.485     -11262.888      87.129874      77.784         77.784       
       378   0.36777698     217.76147     -8021.1977     -1479.1243     -11355.801     -11228.668      87.129874      77.776         77.776       
       379   0.36785265     222.40809     -7975.6775     -1367.8791     -11385.484     -11173.67       87.129874      77.768         77.768       
       380   0.36792834     229.09583     -7879.412      -1217.438      -11331.875     -11088.923      87.129874      77.76          77.76        
       381   0.36800406     234.02983     -7720.4339     -1025.5462     -11176.898     -10958.858      87.129874      77.752         77.752       
       382   0.3680798      234.86164     -7511.639      -810.96845     -10935.912     -10788.036      87.129874      77.744         77.744       
       383   0.36815556     231.98102     -7294.0974     -616.24628     -10657.925     -10608.121      87.129874      77.736         77.736       
       384   0.36823135     227.73687     -7115.861      -490.37062     -10402.048     -10455.165      87.129874      77.728         77.728       
       385   0.36830716     224.35464     -7001.5639     -456.42959     -10206.903     -10341.359      87.129874      77.72          77.72        
       386   0.36838299     222.41905     -6939.4768     -490.30014     -10077.782     -10250.348      87.129874      77.712         77.712       
       387   0.36845885     221.68217     -6901.5634     -540.81562     -10001.898     -10161.977      87.129874      77.704         77.704       
       388   0.36853473     222.62103     -6872.7259     -573.11193     -9968.1685     -10076.897      87.129874      77.696         77.696       
       389   0.36861064     226.07138     -6856.0022     -583.95042     -9969.0415     -10015.015      87.129874      77.688         77.688       
       390   0.36868657     231.53537     -6856.138      -583.24073     -9992.9044     -9992.2689      87.129874      77.68          77.68        
       391   0.36876252     236.82992     -6868.3013     -578.54471     -10023.209     -10003.15       87.129874      77.672         77.672       
       392   0.36883849     239.46685     -6884.02       -575.93702     -10047.835     -10028.288      87.129874      77.664         77.664       
       393   0.36891449     238.28875     -6902.9582     -584.906       -10067.046     -10056.923      87.129874      77.656         77.656       
       394   0.36899051     234.27222     -6937.3092     -623.11556     -10092.808     -10096.004      87.129874      77.648         77.648       
       395   0.36906656     229.96732     -7003.7902     -712.88261     -10140.437     -10158.051      87.129874      77.64          77.64        
       396   0.36914263     227.89961     -7107.2759     -861.28048     -10217.554     -10242.993      87.129874      77.632         77.632       
       397   0.36921872     228.94279     -7231.3435     -1042.0682     -10319.794     -10332.168      87.129874      77.624         77.624       
       398   0.36929483     232.3988      -7349.3018     -1210.8562     -10435.103     -10401.946      87.129874      77.616         77.616       
       399   0.36937097     237.37956     -7445.3261     -1340.6412     -10551.672     -10443.666      87.129874      77.608         77.608       
       400   0.36944714     243.23        -7521.5156     -1433.3095     -10662.648     -10468.59       87.129874      77.6           77.6         
       401   0.36952332     248.94582     -7586.7919     -1502.5723     -10762.256     -10495.547      87.129874      77.592         77.592       
       402   0.36959953     253.02441     -7644.4163     -1560.617      -10838.602     -10534.03       87.129874      77.584         77.584       
       403   0.36967577     253.93695     -7688.2001     -1613.7086     -10873.282     -10577.61       87.129874      77.576         77.576       
       404   0.36975202     250.90058     -7708.4678     -1659.8668     -10852.505     -10613.031      87.129874      77.568         77.568       
       405   0.3698283      244.67746     -7702.5923     -1693.8545     -10779.779     -10634.143      87.129874      77.56          77.56        
       406   0.36990461     237.57023     -7679.8108     -1717.604      -10679.168     -10642.661      87.129874      77.552         77.552       
       407   0.36998094     232.18751     -7652.0141     -1736.4121     -10581.677     -10637.953      87.129874      77.544         77.544       
       408   0.37005729     229.66395     -7620.3334     -1742.8894     -10506.28      -10611.831      87.129874      77.536         77.536       
       409   0.37013366     229.45062     -7577.2415     -1717.5083     -10456.64      -10557.576      87.129874      77.528         77.528       
       410   0.37021006     230.6012      -7520.9519     -1647.6255     -10433.325     -10481.905      87.129874      77.52          77.52        
       411   0.37028648     232.48736     -7461.9536     -1538.5032     -10440.356     -10407.002      87.129874      77.512         77.512       
       412   0.37036293     234.79408     -7416.613      -1411.6357     -10478.22      -10359.983      87.129874      77.504         77.504       
       413   0.3704394      237.25489     -7394.0647     -1296.5084     -10531.77      -10353.916      87.129874      77.496         77.496       
       414   0.37051589     239.24736     -7385.9498     -1210.3918     -10572.163     -10375.294      87.129874      77.488         77.488       
       415   0.37059241     239.92671     -7369.5185     -1143.7154     -10572.647     -10392.193      87.129874      77.48          77.48        
       416   0.37066895     239.07309     -7323.7399     -1075.3198     -10521.841     -10374.059      87.129874      77.472         77.472       
       417   0.37074552     237.72674     -7245.6137     -999.18412     -10428.849     -10308.808      87.129874      77.464         77.464       
       418   0.37082211     237.75106     -7149.9556     -924.69724     -10318.681     -10206.489      87.129874      77.456         77.456       
       419   0.37089872     240.04919     -7053.3678     -855.81841     -10217.94      -10086.345      87.129874      77.448         77.448       
       420   0.37097535     243.69792     -6964.755      -787.95847     -10141.512     -9964.794       87.129874      77.44          77.44        
       421   0.37105201     247.03513     -6891.2462     -721.92242     -10094.707     -9857.1092      87.129874      77.432         77.432       
       422   0.3711287      248.8668      -6846.1799     -669.22382     -10084.068     -9785.2478      87.129874      77.424         77.424       
       423   0.3712054      249.08126     -6846.9848     -649.47056     -10116.172     -9775.3119      87.129874      77.416         77.416       
       424   0.37128214     248.25994     -6901.4165     -681.39994     -10182.387     -9840.4622      87.129874      77.408         77.408       
       425   0.37135889     246.55438     -6992.7388     -763.59986     -10251.777     -9962.8392      87.129874      77.4           77.4         
       426   0.37143567     243.49494     -7081.9002     -866.03404     -10285.637     -10094.03       87.129874      77.392         77.392       
       427   0.37151247     238.88844     -7129.5604     -949.54056     -10258.47      -10180.671      87.129874      77.384         77.384       
       428   0.3715893      233.79807     -7121.2122     -992.33795     -10173.289     -10198.009      87.129874      77.376         77.376       
       429   0.37166615     230.59404     -7074.3325     -996.66562     -10065.522     -10160.81       87.129874      77.368         77.368       
       430   0.37174302     231.09413     -7020.0468     -974.85289     -9984.2064     -10101.081      87.129874      77.36          77.36        
       431   0.37181992     234.91595     -6982.3808     -938.03496     -9964.7059     -10044.402      87.129874      77.352         77.352       
       432   0.37189684     240.21816     -6976.3325     -894.89128     -10020.575     -10013.531      87.129874      77.344         77.344       
       433   0.37197379     245.34774     -7016.4991     -856.69454     -10152.925     -10039.878      87.129874      77.336         77.336       
       434   0.37205076     249.75205     -7117.2389     -844.31893     -10352.404     -10154.994      87.129874      77.328         77.328       
       435   0.37212775     253.58091     -7279.2326     -883.70568     -10590.888     -10363.105      87.129874      77.32          77.32        
       436   0.37220477     256.46092     -7473.8574     -979.90604     -10818.661     -10623.005      87.129874      77.312         77.312       
       437   0.37228181     257.13765     -7646.4908     -1097.9989     -10979.324     -10862.149      87.129874      77.304         77.304       
       438   0.37235887     254.52185     -7743.037      -1183.052      -11032.629     -11013.43       87.129874      77.296         77.296       
       439   0.37243596     249.15385     -7742.3336     -1200.4078     -10977.423     -11049.17       87.129874      77.288         77.288       
       440   0.37251307     243.51316     -7667.0867     -1154.2974     -10856.717     -10990.246      87.129874      77.28          77.28        
       441   0.37259021     239.98835     -7562.1985     -1075.3486     -10729.231     -10882.016      87.129874      77.272         77.272       
       442   0.37266737     238.85551     -7467.1421     -1001.2687     -10633.31      -10766.848      87.129874      77.264         77.264       
       443   0.37274456     238.8408      -7408.4361     -963.29616     -10582.532     -10679.48       87.129874      77.256         77.256       
       444   0.37282177     238.9162      -7406.2683     -981.55807     -10584.45      -10652.797      87.129874      77.248         77.248       
       445   0.372899       239.19941     -7474.4062     -1070.2449     -10644.802     -10708.171      87.129874      77.24          77.24        
       446   0.37297625     240.38595     -7607.2882     -1234.8209     -10751.134     -10835.91       87.129874      77.232         77.232       
       447   0.37305354     242.59029     -7768.2781     -1450.4331     -10863.607     -10990.795      87.129874      77.224         77.224       
       448   0.37313084     244.98275     -7897.3174     -1655.4274     -10928.863     -11107.662      87.129874      77.216         77.216       
       449   0.37320817     246.63431     -7939.8982     -1782.6479     -10906.166     -11130.88       87.129874      77.208         77.208       
       450   0.37328552     247.80524     -7879.9582     -1801.2708     -10792.67      -11045.933      87.129874      77.2           77.2         
       451   0.3733629      250.08853     -7749.1891     -1729.8582     -10629.535     -10888.175      87.129874      77.192         77.192       
       452   0.3734403      254.63771     -7605.0015     -1617.1246     -10480.772     -10717.108      87.129874      77.184         77.184       
       453   0.37351772     260.52634     -7499.7601     -1514.8956     -10402.061     -10582.323      87.129874      77.176         77.176       
       454   0.37359517     265.32249     -7467.1518     -1459.6506     -10425.951     -10515.854      87.129874      77.168         77.168       
       455   0.37367265     267.00408     -7524.8555     -1469.6451     -10562.179     -10542.742      87.129874      77.16          77.16        
       456   0.37375014     265.22857     -7676.176      -1555.6723     -10795.813     -10677.043      87.129874      77.152         77.152       
       457   0.37382767     260.9588      -7901.9385     -1718.2624     -11083.456     -10904.097      87.129874      77.144         77.144       
       458   0.37390521     255.25128     -8153.3369     -1928.1659     -11359.888     -11171.957      87.129874      77.136         77.136       
       459   0.37398278     248.64039     -8362.0425     -2123.1129     -11558.125     -11404.89       87.129874      77.128         77.128       
       460   0.37406037     241.55479     -8468.891      -2237.9135     -11632.868     -11535.891      87.129874      77.12          77.12        
       461   0.37413799     235.29807     -8455.6095     -2241.7033     -11582.483     -11542.642      87.129874      77.112         77.112       
       462   0.37421563     232.09913     -8354.2173     -2150.4482     -11454.866     -11457.338      87.129874      77.104         77.104       
       463   0.3742933      233.29734     -8223.4619     -2014.4982     -11318.593     -11337.295      87.129874      77.096         77.096       
       464   0.37437099     237.73359     -8115.9663     -1894.7542     -11225.059     -11228.085      87.129874      77.088         77.088       
       465   0.37444871     242.56514     -8063.6922     -1834.1389     -11198.004     -11158.934      87.129874      77.08          77.08        
       466   0.37452645     245.47125     -8080.5434     -1843.7143     -11243.594     -11154.322      87.129874      77.072         77.072       
       467   0.37460421     245.91834     -8164.3331     -1914.6426     -11351.253     -11227.104      87.129874      77.064         77.064       
       468   0.374682       244.71616     -8289.7771     -2027.5541     -11483.723     -11358.054      87.129874      77.056         77.056       
       469   0.37475981     242.76447     -8404.8951     -2145.2228     -11580.744     -11488.718      87.129874      77.048         77.048       
       470   0.37483764     240.45871     -8445.91       -2212.3265     -11583.296     -11542.107      87.129874      77.04          77.04        
       471   0.3749155      238.28288     -8368.375      -2179.8561     -11461.486     -11463.783      87.129874      77.032         77.032       
       472   0.37499339     237.49563     -8174.3773     -2035.8698     -11231.143     -11256.119      87.129874      77.024         77.024       
       473   0.3750713      239.73496     -7913.2985     -1814.3431     -10949.257     -10976.296      87.129874      77.016         77.016       
       474   0.37514923     245.48692     -7656.5337     -1580.1159     -10689.369     -10700.116      87.129874      77.008         77.008       
       475   0.37522719     253.12776     -7466.5113     -1398.449      -10514.354     -10486.731      87.129874      77             77           
       476   0.37530517     260.0232      -7382.1849     -1306.9177     -10464.011     -10375.626      87.129874      76.992         76.992       
       477   0.37538317     264.51046     -7419.2513     -1314.744      -10550.459     -10392.551      87.129874      76.984         76.984       
       478   0.3754612      266.70455     -7569.4929     -1422.0733     -10749.221     -10537.185      87.129874      76.976         76.976       
       479   0.37553926     267.66117     -7794.9155     -1618.9296     -10998.301     -10767.516      87.129874      76.968         76.968       
       480   0.37561734     268.07503     -8029.862      -1863.8777     -11218.844     -11006.864      87.129874      76.96          76.96        
       481   0.37569544     267.92491     -8202.5371     -2085.9536     -11347.773     -11173.885      87.129874      76.952         76.952       
       482   0.37577357     267.17264     -8267.2188     -2221.7247     -11360.418     -11219.514      87.129874      76.944         76.944       
       483   0.37585172     266.30533     -8225.7211     -2250.2873     -11275.447     -11151.429      87.129874      76.936         76.936       
       484   0.37592989     266.03496     -8123.8928     -2198.905      -11143.656     -11029.118      87.129874      76.928         76.928       
       485   0.3760081      266.39254     -8026.4421     -2125.9915     -11027.496     -10925.839      87.129874      76.92          76.92        
       486   0.37608632     266.08981     -7987.6948     -2091.9455     -10980.6       -10890.539      87.129874      76.912         76.912       
       487   0.37616457     263.54953     -8038.014      -2135.0275     -11034.684     -10944.33       87.129874      76.904         76.904       
       488   0.37624284     258.75794     -8185.1773     -2267.2697     -11194.615     -11093.647      87.129874      76.896         76.896       
       489   0.37632114     253.49724     -8413.1415     -2479.0949     -11434.062     -11326.267      87.129874      76.888         76.888       
       490   0.37639946     249.72545     -8675.2267     -2731.3452     -11695.002     -11599.333      87.129874      76.88          76.88        
       491   0.37647781     248.14792     -8899.6532     -2951.7305     -11903.758     -11843.471      87.129874      76.872         76.872       
       492   0.37655618     248.31911     -9016.2984     -3061.7762     -12000.669     -11986.45       87.129874      76.864         76.864       
       493   0.37663458     249.53355     -8988.7599     -3017.0991     -11960.974     -11988.207      87.129874      76.856         76.856       
       494   0.376713       251.45463     -8831.0831     -2825.7153     -11802.228     -11865.306      87.129874      76.848         76.848       
       495   0.37679145     254.07895     -8599.7139     -2540.4994     -11577.851     -11680.792      87.129874      76.84          76.84        
       496   0.37686991     256.9582      -8365.4343     -2237.5158     -11355.878     -11502.909      87.129874      76.832         76.832       
       497   0.37694841     258.72696     -8184.6068     -1985.523      -11195.518     -11372.78       87.129874      76.824         76.824       
       498   0.37702693     258.28836     -8088.8308     -1823.2427     -11132.425     -11310.825      87.129874      76.816         76.816       
       499   0.37710547     256.32731     -8086.9346     -1758.1298     -11172.448     -11330.226      87.129874      76.808         76.808       
       500   0.37718404     254.88444     -8162.2858     -1776.5865     -11287.011     -11423.26       87.129874      76.8           76.8         
       501   0.37726263     255.50069     -8266.7139     -1842.8916     -11414.477     -11542.773      87.129874      76.792         76.792       
       502   0.37734125     258.06913     -8329.5971     -1896.3105     -11480.044     -11612.437      87.129874      76.784         76.784       
       503   0.37741989     261.24341     -8286.5413     -1869.937      -11426.614     -11563.073      87.129874      76.776         76.776       
       504   0.37749856     263.6947      -8111.1998     -1727.8139     -11235.782     -11370.003      87.129874      76.768         76.768       
       505   0.37757725     264.9105      -7828.7994     -1487.5727     -10931.971     -11066.854      87.129874      76.76          76.76        
       506   0.37765596     265.07474     -7504.0102     -1211.1805     -10575.581     -10725.269      87.129874      76.752         76.752       
       507   0.3777347      264.29643     -7211.4538     -974.00713     -10245.636     -10414.718      87.129874      76.744         76.744       
       508   0.37781347     262.04476     -7008.3702     -830.34822     -10014.551     -10180.212      87.129874      76.736         76.736       
       509   0.37789225     258.21929     -6926.6175     -799.60796     -9928.4137     -10051.831      87.129874      76.728         76.728       
       510   0.37797107     254.36778     -6974.9227     -878.79597     -9996.6413     -10049.331      87.129874      76.72          76.72        
       511   0.37804991     252.67268     -7132.649      -1051.0534     -10184.564     -10162.33       87.129874      76.712         76.712       
       512   0.37812877     253.99332     -7343.9252     -1273.4999     -10418.532     -10339.744      87.129874      76.704         76.704       
       513   0.37820766     257.33672     -7530.8008     -1471.8642     -10612.155     -10508.383      87.129874      76.696         76.696       
       514   0.37828657     260.79265     -7624.4232     -1570.7995     -10699.483     -10602.987      87.129874      76.688         76.688       
       515   0.37836551     262.92255     -7594.9425     -1536.3093     -10655.495     -10593.023      87.129874      76.68          76.68        
       516   0.37844447     263.53715     -7462.654      -1390.3662     -10501.564     -10496.032      87.129874      76.672         76.672       
       517   0.37852346     263.43647     -7285.5217     -1195.7141     -10296.648     -10364.204      87.129874      76.664         76.664       
       518   0.37860247     263.43005     -7130.9301     -1025.2162     -10115.831     -10251.743      87.129874      76.656         76.656       
       519   0.3786815      263.53619     -7050.2837     -929.68618     -10026.628     -10194.537      87.129874      76.648         76.648       
       520   0.37876056     263.79471     -7072.3332     -930.47544     -10067.924     -10218.6        87.129874      76.64          76.64        
       521   0.37883965     265.27732     -7204.7695     -1033.7107     -10235.655     -10344.943      87.129874      76.632         76.632       
       522   0.37891876     268.99368     -7426.1228     -1230.239      -10480.55      -10567.579      87.129874      76.624         76.624       
       523   0.37899789     274.30852     -7680.4569     -1477.4432     -10725.639     -10838.288      87.129874      76.616         76.616       
       524   0.37907705     279.25407     -7893.116      -1700.1421     -10897.895     -11081.31       87.129874      76.608         76.608       
       525   0.37915624     281.72057     -8000.5999     -1826.0025     -10952.263     -11223.534      87.129874      76.6           76.6         
       526   0.37923545     280.55348     -7976.7188     -1825.6199     -10878.533     -11226.003      87.129874      76.592         76.592       
       527   0.37931468     276.37354     -7844.3583     -1726.9301     -10700.662     -11105.482      87.129874      76.584         76.584       
       528   0.37939394     271.23827     -7664.6062     -1599.466      -10473.174     -10921.179      87.129874      76.576         76.576       
       529   0.37947323     267.07353     -7506.6244     -1516.4807     -10267.761     -10735.631      87.129874      76.568         76.568       
       530   0.37955254     264.35308     -7420.7133     -1518.8333     -10151.809     -10591.497      87.129874      76.56          76.56        
       531   0.37963187     262.98691     -7434.803      -1613.3977     -10169.258     -10521.754      87.129874      76.552         76.552       
       532   0.37971123     263.66823     -7558.6138     -1792.6242     -10327.91      -10555.308      87.129874      76.544         76.544       
       533   0.37979061     266.75232     -7772.9957     -2035.0291     -10591.542     -10692.416      87.129874      76.536         76.536       
       534   0.37987002     270.8296      -8021.9402     -2291.4145     -10890.621     -10883.785      87.129874      76.528         76.528       
       535   0.37994945     273.51328     -8229.2457     -2489.1618     -11148.573     -11050.003      87.129874      76.52          76.52        
       536   0.38002891     272.89935     -8329.6644     -2562.648      -11303.555     -11122.79       87.129874      76.512         76.512       
       537   0.38010839     268.56193     -8294.4685     -2486.7432     -11320.347     -11076.315      87.129874      76.504         76.504       
       538   0.3801879      261.92223     -8141.6063     -2289.2388     -11202.251     -10933.329      87.129874      76.496         76.496       
       539   0.38026744     255.61175     -7925.3382     -2035.2631     -10995.209     -10745.542      87.129874      76.488         76.488       
       540   0.38034699     251.77358     -7708.1548     -1791.7669     -10770.656     -10562.042      87.129874      76.48          76.48        
       541   0.38042658     250.7526      -7536.6174     -1600.3074     -10594.69      -10414.855      87.129874      76.472         76.472       
       542   0.38050618     252.16669     -7440.0385     -1481.0209     -10508.364     -10330.731      87.129874      76.464         76.464       
       543   0.38058582     256.33192     -7433.8329     -1447.2496     -10521.647     -10332.602      87.129874      76.456         76.456       
       544   0.38066548     263.23539     -7506.75       -1497.0914     -10607.981     -10415.177      87.129874      76.448         76.448       
       545   0.38074516     271.22871     -7610.2029     -1588.8093     -10707.333     -10534.467      87.129874      76.44          76.44        
       546   0.38082487     277.85571     -7674.9372     -1642.6568     -10751.84      -10630.315      87.129874      76.432         76.432       
       547   0.3809046      281.26261     -7642.6985     -1582.4916     -10692.81      -10652.794      87.129874      76.424         76.424       
       548   0.38098436     281.05736     -7492.3896     -1383.1264     -10514.074     -10579.969      87.129874      76.416         76.416       
       549   0.38106414     278.4137      -7248.6358     -1082.9565     -10237.94      -10425.011      87.129874      76.408         76.408       
       550   0.38114395     275.29153     -6969.8823     -760.96493     -9923.8264     -10224.856      87.129874      76.4           76.4         
       551   0.38122378     272.92165     -6720.8805     -496.25866     -9647.5054     -10018.877      87.129874      76.392         76.392       
       552   0.38130364     270.90974     -6550.1815     -337.09114     -9470.7328     -9842.7206      87.129874      76.384         76.384       
       553   0.38138352     268.6954      -6489.2233     -302.25357     -9427.7029     -9737.7135      87.129874      76.376         76.376       
       554   0.38146343     266.97856     -6555.082      -393.66742     -9526.589      -9744.9895      87.129874      76.368         76.368       
       555   0.38154337     266.74741     -6738.3058     -588.97489     -9748.6597     -9877.2829      87.129874      76.36          76.36        
       556   0.38162332     267.97356     -6993.7923     -831.84406     -10045.911     -10103.621      87.129874      76.352         76.352       
       557   0.38170331     269.86167     -7254.2034     -1048.9641     -10352.562     -10361.085      87.129874      76.344         76.344       
       558   0.38178332     271.62556     -7457.4754     -1185.9265     -10605.849     -10580.651      87.129874      76.336         76.336       
       559   0.38186335     272.98821     -7571.3685     -1233.2797     -10762.606     -10718.219      87.129874      76.328         76.328       
       560   0.38194341     274.34339     -7603.412      -1224.3588     -10815.716     -10770.161      87.129874      76.32          76.32        
       561   0.3820235      276.20239     -7591.1422     -1211.9076     -10800.534     -10760.985      87.129874      76.312         76.312       
       562   0.38210361     278.03612     -7577.4098     -1237.5214     -10773.904     -10720.804      87.129874      76.304         76.304       
       563   0.38218374     278.22501     -7593.5711     -1316.7417     -10783.355     -10680.617      87.129874      76.296         76.296       
       564   0.3822639      275.8841      -7660.2254     -1449.8436     -10852.038     -10678.794      87.129874      76.288         76.288       
       565   0.38234409     271.79926     -7785.8671     -1632.942      -10978.617     -10746.043      87.129874      76.28          76.28        
       566   0.3824243      267.37143     -7955.5964     -1850.0185     -11140.65      -10876.121      87.129874      76.272         76.272       
       567   0.38250453     263.69382     -8127.7917     -2061.801      -11298.287     -11023.287      87.129874      76.264         76.264       
       568   0.38258479     261.47315     -8247.8176     -2211.2457     -11403.496     -11128.711      87.129874      76.256         76.256       
       569   0.38266508     261.08701     -8269.8927     -2249.6978     -11413.695     -11146.285      87.129874      76.248         76.248       
       570   0.38274539     262.69419     -8176.8571     -2165.3326     -11306.911     -11058.328      87.129874      76.24          76.24        
       571   0.38282573     266.39494     -7989.0002     -1989.821      -11096.185     -10880.994      87.129874      76.232         76.232       
       572   0.38290609     272.05951     -7755.531      -1780.4567     -10830.006     -10656.13       87.129874      76.224         76.224       
       573   0.38298648     278.56977     -7531.7104     -1590.1332     -10572.166     -10432.832      87.129874      76.216         76.216       
       574   0.38306689     283.90686     -7361.9336     -1450.8283     -10377.359     -10257.613      87.129874      76.208         76.208       
       575   0.38314733     286.98297     -7279.3772     -1384.0262     -10279.007     -10175.098      87.129874      76.2           76.2         
       576   0.38322779     288.32337     -7302.4381     -1406.7864     -10285.986     -10214.542      87.129874      76.192         76.192       
       577   0.38330828     288.86474     -7422.3939     -1514.1159     -10386.28      -10366.786      87.129874      76.184         76.184       
       578   0.3833888      289.17854     -7602.3542     -1668.7283     -10553.016     -10585.319      87.129874      76.176         76.176       
       579   0.38346934     289.49862     -7790.7346     -1814.6271     -10746.769     -10810.808      87.129874      76.168         76.168       
       580   0.3835499      289.71937     -7940.1963     -1905.2261     -10920.976     -10994.387      87.129874      76.16          76.16        
       581   0.38363049     289.41594     -8023.8737     -1927.8178     -11033.259     -11110.544      87.129874      76.152         76.152       
       582   0.38371111     288.32657     -8044.6616     -1909.3619     -11065.123     -11159.5        87.129874      76.144         76.144       
       583   0.38379175     286.49468     -8029.8261     -1893.7504     -11034.702     -11161.026      87.129874      76.136         76.136       
       584   0.38387242     283.61895     -8012.3643     -1908.8273     -10983.629     -11144.636      87.129874      76.128         76.128       
       585   0.38395311     279.21566     -8019.2037     -1960.872      -10953.184     -11143.555      87.129874      76.12          76.12        
       586   0.38403383     274.08841     -8072.6968     -2055.9024     -10971.198     -11190.99       87.129874      76.112         76.112       
       587   0.38411457     270.16777     -8184.0013     -2201.1551     -11048.866     -11301.983      87.129874      76.104         76.104       
       588   0.38419534     268.80864     -8339.293      -2382.148      -11182.231     -11453.501      87.129874      76.096         76.096       
       589   0.38427613     270.20743     -8500.6181     -2557.9558     -11350.058     -11593.841      87.129874      76.088         76.088       
       590   0.38435695     273.66636     -8621.4544     -2678.082      -11513.465     -11672.817      87.129874      76.08          76.08        
       591   0.3844378      277.95053     -8664.9074     -2705.1712     -11627.69      -11661.861      87.129874      76.072         76.072       
       592   0.38451867     281.75276     -8617.1618     -2635.509      -11658.01      -11557.967      87.129874      76.064         76.064       
       593   0.38459956     284.20105     -8491.604      -2502.4003     -11593.918     -11378.494      87.129874      76.056         76.056       
       594   0.38468048     284.86613     -8320.1126     -2351.7851     -11454.599     -11153.953      87.129874      76.048         76.048       
       595   0.38476143     283.40815     -8138.6604     -2212.0634     -11280.645     -10923.273      87.129874      76.04          76.04        
       596   0.3848424      279.97793     -7981.9109     -2093.4655     -11119.679     -10732.588      87.129874      76.032         76.032       
       597   0.3849234      276.13292     -7884.0235     -2010.4438     -11013.418     -10628.208      87.129874      76.024         76.024       
       598   0.38500442     274.09431     -7869.1485     -1983.7489     -10988.081     -10635.616      87.129874      76.016         76.016       
       599   0.38508547     275.06496     -7936.4505     -2018.5541     -11046.581     -10744.216      87.129874      76.008         76.008       
       600   0.38516655     278.77703     -8058.7243     -2095.3314     -11166.074     -10914.768      87.129874      76             76           
       601   0.38524765     283.76472     -8193.2966     -2177.4143     -11305.739     -11096.737      87.129874      75.992         75.992       
       602   0.38532878     288.12832     -8299.7769     -2229.3196     -11423.061     -11246.95       87.129874      75.984         75.984       
       603   0.38540993     290.54797     -8356.0407     -2238.1568     -11485.869     -11344.097      87.129874      75.976         75.976       
       604   0.3854911      290.78227     -8363.0449     -2219.6542     -11482.32      -11387.16       87.129874      75.968         75.968       
[...]
     13767   0.90138966     298.75946     -24597.759     -25095.387     -24163.469     -24534.42       87.129874      49.68          49.68        
     13768   0.90138966     299.29067     -24694.499     -25356.972     -24134.818     -24591.706      87.129874      49.68          49.68        
     13769   0.90138966     299.91301     -24679.014     -25511.512     -24042.485     -24483.045      87.129874      49.68          49.68        
     13770   0.90138966     300.13184     -24551.185     -25525.937     -23915.384     -24212.235      87.129874      49.68          49.68        
     13771   0.90138966     300.17241     -24355.654     -25423.725     -23787.047     -23856.189      87.129874      49.68          49.68        
     13772   0.90138966     300.32577     -24155.949     -25260.776     -23692.053     -23515.018      87.129874      49.68          49.68        
     13773   0.90138966     300.58473     -24005.983     -25090.262     -23658.984     -23268.702      87.129874      49.68          49.68        
     13774   0.90138966     300.87206     -23936.734     -24963.148     -23704.76      -23142.294      87.129874      49.68          49.68        
     13775   0.90138966     301.13023     -23950.994     -24935.599     -23817.836     -23099.546      87.129874      49.68          49.68        
     13776   0.90138966     301.32333     -24024.848     -25046.189     -23945.042     -23083.313      87.129874      49.68          49.68        
     13777   0.90138966     301.51714     -24118.943     -25282.365     -24014.931     -23059.532      87.129874      49.68          49.68        
     13778   0.90138966     301.93512     -24189.568     -25572.754     -23986.963     -23008.987      87.129874      49.68          49.68        
     13779   0.90138966     302.47647     -24192.056     -25813.974     -23868.478     -22893.717      87.129874      49.68          49.68        
     13780   0.90138966     302.56388     -24091.992     -25918.308     -23681.819     -22675.85       87.129874      49.68          49.68        
     13781   0.90138966     301.84802     -23891.552     -25862.698     -23441.211     -22370.749      87.129874      49.68          49.68        
     13782   0.90138966     300.6788      -23639.311     -25691.193     -23172.044     -22054.696      87.129874      49.68          49.68        
     13783   0.90138966     299.60918     -23405.212     -25465.288     -22922.258     -21828.09       87.129874      49.68          49.68        
     13784   0.90138966     298.9095      -23245.979     -25237.137     -22741.317     -21759.483      87.129874      49.68          49.68        
     13785   0.90138966     298.55942     -23188.447     -25068.601     -22657.352     -21839.388      87.129874      49.68          49.68        
     13786   0.90138966     298.42934     -23228.31      -25024.668     -22664.194     -21996.067      87.129874      49.68          49.68        
     13787   0.90138966     298.45212     -23337.993     -25132.249     -22713.554     -22168.174      87.129874      49.68          49.68        
     13788   0.90138966     298.63609     -23477.777     -25351.089     -22736.547     -22345.694      87.129874      49.68          49.68        
     13789   0.90138966     299.06264     -23603.856     -25589.25      -22694.371     -22527.947      87.129874      49.68          49.68        
     13790   0.90138966     299.49921     -23671.594     -25750.128     -22592.111     -22672.545      87.129874      49.68          49.68        
     13791   0.90138966     299.49436     -23650.364     -25780.734     -22452.97      -22717.388      87.129874      49.68          49.68        
     13792   0.90138966     298.98239     -23544.955     -25692.409     -22300.5       -22641.955      87.129874      49.68          49.68        
     13793   0.90138966     298.35071     -23401.072     -25548.174     -22159.4       -22495.641      87.129874      49.68          49.68        
     13794   0.90138966     298.15564     -23284.032     -25415.283     -22060.25      -22376.565      87.129874      49.68          49.68        
     13795   0.90138966     298.62982     -23242.998     -25321.396     -22039.185     -22368.413      87.129874      49.68          49.68        
     13796   0.90138966     299.13334     -23284.211     -25259.941     -22114.825     -22477.868      87.129874      49.68          49.68        
     13797   0.90138966     298.86168     -23384.354     -25230.149     -22273.505     -22649.408      87.129874      49.68          49.68        
     13798   0.90138966     298.0885      -23521.777     -25251.421     -22480.963     -22832.946      87.129874      49.68          49.68        
     13799   0.90138966     297.68394     -23678.111     -25324.639     -22700.821     -23008.872      87.129874      49.68          49.68        
     13800   0.90138966     298.07173     -23820.663     -25399.079     -22903.756     -23159.155      87.129874      49.68          49.68        
     13801   0.90138966     298.86685     -23898.682     -25389.613     -23066.262     -23240.17       87.129874      49.68          49.68        
     13802   0.90138966     299.25334     -23865.448     -25234.527     -23161.525     -23200.292      87.129874      49.68          49.68        
     13803   0.90138966     298.84071     -23713.377     -24946.024     -23160.037     -23034.07       87.129874      49.68          49.68        
     13804   0.90138966     298.06668     -23489.915     -24599.668     -23057.708     -22812.368      87.129874      49.68          49.68        
     13805   0.90138966     297.93489     -23276.969     -24267.725     -22911.357     -22651.825      87.129874      49.68          49.68        
     13806   0.90138966     299.05981     -23140.632     -23981.499     -22815.693     -22624.703      87.129874      49.68          49.68        
     13807   0.90138966     300.55672     -23089.104     -23750.671     -22820.704     -22695.937      87.129874      49.68          49.68        
     13808   0.90138966     300.93591     -23091.428     -23593.028     -22900.925     -22780.33       87.129874      49.68          49.68        
     13809   0.90138966     300.13482     -23129.433     -23540.08      -23009.607     -22838.612      87.129874      49.68          49.68        
     13810   0.90138966     299.34452     -23205.741     -23612.223     -23118.826     -22886.174      87.129874      49.68          49.68        
     13811   0.90138966     299.32611     -23307.208     -23780.949     -23203.218     -22937.459      87.129874      49.68          49.68        
     13812   0.90138966     299.59281     -23386.076     -23962.406     -23224.417     -22971.404      87.129874      49.68          49.68        
     13813   0.90138966     299.16182     -23390.384     -24071.056     -23147.717     -22952.378      87.129874      49.68          49.68        
     13814   0.90138966     297.89104     -23312.218     -24080.443     -22975.806     -22880.405      87.129874      49.68          49.68        
     13815   0.90138966     296.63112     -23202.392     -24024.568     -22770.07      -22812.539      87.129874      49.68          49.68        
     13816   0.90138966     296.4538      -23136.958     -23948.03      -22630.538     -22832.304      87.129874      49.68          49.68        
     13817   0.90138966     297.72805     -23167.14      -23869.588     -22638.689     -22993.145      87.129874      49.68          49.68        
     13818   0.90138966     299.39875     -23287.67      -23782.374     -22803.142     -23277.494      87.129874      49.68          49.68        
     13819   0.90138966     300.06645     -23461.328     -23700.666     -23067.819     -23615.499      87.129874      49.68          49.68        
     13820   0.90138966     299.77322     -23665.896     -23700.883     -23359.948     -23936.857      87.129874      49.68          49.68        
     13821   0.90138966     299.7842      -23897.87      -23872.297     -23614.182     -24207.133      87.129874      49.68          49.68        
     13822   0.90138966     300.82771     -24136.254     -24216.144     -23777.313     -24415.304      87.129874      49.68          49.68        
     13823   0.90138966     302.24403     -24325.765     -24624.877     -23819.366     -24533.051      87.129874      49.68          49.68        
     13824   0.90138966     302.85486     -24409.25      -24973.195     -23735.874     -24518.683      87.129874      49.68          49.68        
     13825   0.90138966     302.24597     -24374.271     -25206.932     -23544.618     -24371.263      87.129874      49.68          49.68        
     13826   0.90138966     301.11384     -24264.774     -25341.453     -23290.895     -24161.976      87.129874      49.68          49.68        
     13827   0.90138966     300.46051     -24147.975     -25394.636     -23049.244     -24000.044      87.129874      49.68          49.68        
     13828   0.90138966     300.63217     -24068.1       -25358.716     -22900.332     -23945.252      87.129874      49.68          49.68        
     13829   0.90138966     300.83823     -24024.998     -25239.678     -22885.235     -23950.081      87.129874      49.68          49.68        
     13830   0.90138966     300.09794     -23997.374     -25097.685     -22981.86      -23912.577      87.129874      49.68          49.68        
     13831   0.90138966     298.6942      -23979.169     -25024.131     -23128.628     -23784.749      87.129874      49.68          49.68        
     13832   0.90138966     297.71136     -23974.797     -25062.611     -23254.689     -23607.09       87.129874      49.68          49.68        
     13833   0.90138966     297.55707     -23970.561     -25164.247     -23302.255     -23445.182      87.129874      49.68          49.68        
     13834   0.90138966     297.81377     -23932.483     -25240.255     -23244.937     -23312.256      87.129874      49.68          49.68        
     13835   0.90138966     298.0626      -23833.264     -25240.838     -23093.939     -23165.015      87.129874      49.68          49.68        
     13836   0.90138966     298.14606     -23674.35      -25164.411     -22886.628     -22972.012      87.129874      49.68          49.68        
     13837   0.90138966     298.23246     -23490.247     -25022.397     -22681.64      -22766.703      87.129874      49.68          49.68        
     13838   0.90138966     298.64575     -23332.075     -24825.757     -22552.907     -22617.561      87.129874      49.68          49.68        
     13839   0.90138966     299.36138     -23237.356     -24603.722     -22553.672     -22554.676      87.129874      49.68          49.68        
     13840   0.90138966     299.66693     -23210.374     -24406.004     -22684.563     -22540.555      87.129874      49.68          49.68        
     13841   0.90138966     298.90601     -23239.463     -24285.769     -22910.669     -22521.95       87.129874      49.68          49.68        
     13842   0.90138966     297.73766     -23322.927     -24290.874     -23181.408     -22496.499      87.129874      49.68          49.68        
     13843   0.90138966     297.38807     -23457.364     -24434.755     -23427.507     -22509.83       87.129874      49.68          49.68        
     13844   0.90138966     297.9785      -23607.335     -24658.993     -23573.986     -22589.025      87.129874      49.68          49.68        
     13845   0.90138966     298.6784      -23717.212     -24872.973     -23582.357     -22696.306      87.129874      49.68          49.68        
     13846   0.90138966     299.00386     -23752.447     -25028.784     -23473.828     -22754.731      87.129874      49.68          49.68        
     13847   0.90138966     299.09649     -23721.734     -25132.769     -23306.476     -22725.955      87.129874      49.68          49.68        
     13848   0.90138966     299.40817     -23669.659     -25212.286     -23137.47      -22659.221      87.129874      49.68          49.68        
     13849   0.90138966     300.30991     -23648.079     -25286.965     -23005.027     -22652.243      87.129874      49.68          49.68        
     13850   0.90138966     301.51835     -23683.712     -25358.662     -22931.106     -22761.368      87.129874      49.68          49.68        
     13851   0.90138966     301.98402     -23765.906     -25422.108     -22928.807     -22946.804      87.129874      49.68          49.68        
     13852   0.90138966     300.95395     -23874.95      -25492.269     -23013.918     -23118.663      87.129874      49.68          49.68        
     13853   0.90138966     299.37362     -24013.64      -25607.793     -23198.849     -23234.277      87.129874      49.68          49.68        
     13854   0.90138966     298.80611     -24184.843     -25779.668     -23456.58      -23318.281      87.129874      49.68          49.68        
     13855   0.90138966     299.22048     -24349.476     -25951.66      -23699.268     -23397.5        87.129874      49.68          49.68        
     13856   0.90138966     299.37721     -24442.986     -26047.654     -23825.92      -23455.385      87.129874      49.68          49.68        
     13857   0.90138966     298.75052     -24434.072     -26049.676     -23797.561     -23454.979      87.129874      49.68          49.68        
     13858   0.90138966     297.95629     -24348.08      -25992.849     -23656.975     -23394.417      87.129874      49.68          49.68        
     13859   0.90138966     297.81782     -24238.303     -25895.947     -23479.679     -23339.284      87.129874      49.68          49.68        
     13860   0.90138966     298.43681     -24145.63      -25739.672     -23319.082     -23378.136      87.129874      49.68          49.68        
     13861   0.90138966     299.21683     -24084.538     -25513.846     -23205.315     -23534.454      87.129874      49.68          49.68        
     13862   0.90138966     299.51432     -24051.377     -25247.722     -23170.985     -23735.423      87.129874      49.68          49.68        
     13863   0.90138966     299.01323     -24040.217     -24990.607     -23248.942     -23881.1        87.129874      49.68          49.68        
     13864   0.90138966     298.48036     -24057.756     -24792.766     -23438.056     -23942.445      87.129874      49.68          49.68        
     13865   0.90138966     299.04562     -24103.863     -24673.787     -23669.989     -23967.812      87.129874      49.68          49.68        
     13866   0.90138966     300.2838      -24140.929     -24589.763     -23829.434     -24003.592      87.129874      49.68          49.68        
     13867   0.90138966     300.92498     -24116.746     -24474.653     -23834.798     -24040.787      87.129874      49.68          49.68        
     13868   0.90138966     300.60847     -24016.44      -24319.787     -23693.196     -24036.338      87.129874      49.68          49.68        
     13869   0.90138966     299.88076     -23874.269     -24174.763     -23481.257     -23966.788      87.129874      49.68          49.68        
     13870   0.90138966     299.43957     -23743.774     -24081.03      -23279.109     -23871.183      87.129874      49.68          49.68        
     13871   0.90138966     299.38329     -23662.488     -24043.065     -23121.861     -23822.539      87.129874      49.68          49.68        
     13872   0.90138966     299.32422     -23641.469     -24059.143     -23017.951     -23847.314      87.129874      49.68          49.68        
     13873   0.90138966     298.93597     -23673.185     -24136.019     -22990.537     -23893          87.129874      49.68          49.68        
     13874   0.90138966     298.034       -23744         -24275.286     -23070.135     -23886.579      87.129874      49.68          49.68        
     13875   0.90138966     297.15676     -23846.092     -24468.996     -23258.28      -23811          87.129874      49.68          49.68        
     13876   0.90138966     297.11737     -23969.352     -24686.732     -23511.657     -23709.668      87.129874      49.68          49.68        
     13877   0.90138966     297.59713     -24082.108     -24866.515     -23753.537     -23626.271      87.129874      49.68          49.68        
     13878   0.90138966     297.74195     -24147.888     -24963.084     -23914.768     -23565.812      87.129874      49.68          49.68        
     13879   0.90138966     297.45226     -24159.482     -25001.859     -23968.864     -23507.723      87.129874      49.68          49.68        
     13880   0.90138966     297.12037     -24140.719     -25051.624     -23932.213     -23438.32       87.129874      49.68          49.68        
     13881   0.90138966     297.10145     -24123.868     -25155.207     -23842.62      -23373.777      87.129874      49.68          49.68        
     13882   0.90138966     297.33851     -24129.105     -25310.438     -23730.289     -23346.588      87.129874      49.68          49.68        
     13883   0.90138966     297.49694     -24161.036     -25502.583     -23611.555     -23368.971      87.129874      49.68          49.68        
     13884   0.90138966     297.48228     -24217.128     -25722.187     -23516.811     -23412.385      87.129874      49.68          49.68        
     13885   0.90138966     297.35613     -24289.805     -25948.769     -23493.8       -23426.845      87.129874      49.68          49.68        
     13886   0.90138966     297.44907     -24367.009     -26144.131     -23565.541     -23391.355      87.129874      49.68          49.68        
     13887   0.90138966     297.92568     -24425.578     -26255.051     -23693.851     -23327.833      87.129874      49.68          49.68        
     13888   0.90138966     298.27962     -24434.557     -26230.777     -23802.333     -23270.56       87.129874      49.68          49.68        
     13889   0.90138966     298.28062     -24380.648     -26068.889     -23834.297     -23238.757      87.129874      49.68          49.68        
     13890   0.90138966     298.3984      -24280.546     -25837.66      -23770.062     -23233.915      87.129874      49.68          49.68        
Loop time of 38.1796 on 32 procs for 10000 steps with 17040 atoms

Performance: 22.630 ns/day, 1.061 hours/ns, 261.920 timesteps/s, 4.463 Matom-step/s
96.8% CPU use with 32 MPI tasks x no OpenMP threads

MPI task timing breakdown:
Section |  min time  |  avg time  |  max time  |%varavg| %total
---------------------------------------------------------------
Pair    | 12.558     | 14.823     | 17.13      |  43.5 | 38.83
Bond    | 6.1529     | 7.4802     | 8.7986     |  39.3 | 19.59
Kspace  | 5.8531     | 9.4211     | 12.762     |  90.2 | 24.68
Neigh   | 1.9924     | 2.0144     | 2.0478     |   0.9 |  5.28
Comm    | 2.7074     | 2.968      | 3.2037     |   6.9 |  7.77
Output  | 0.36456    | 0.41578    | 0.94931    |  15.2 |  1.09
Modify  | 0.12053    | 0.1974     | 0.27135    |  11.6 |  0.52
Other   |            | 0.8592     |            |       |  2.25

Nlocal:          532.5 ave         595 max         456 min
Histogram: 2 5 2 3 4 0 3 3 4 6
Nghost:        4664.06 ave        4815 max        4531 min
Histogram: 8 4 4 0 0 0 2 5 7 2
Neighs:         103494 ave      125453 max       76603 min
Histogram: 2 2 5 3 4 0 1 5 5 5

Total # of neighbors = 3311824
Ave neighs/atom = 194.35587
Ave special neighs/atom = 8.6482394
Neighbor list builds = 526
Dangerous builds = 0
System init for write_data ...
PPPM initialization ...
  using 12-bit tables for long-range coulomb (../kspace.cpp:342)
  G vector (1/distance) = 0.28757057
  grid = 40 25 25
  stencil order = 5
  estimated absolute RMS force accuracy = 0.0033264521
  estimated relative force accuracy = 1.0017512e-05
  using double precision KISS FFT
  3d grid and FFT values/proc = 3705 1120
Generated 21 of 21 mixed pair_coeff terms from sixthpower/sixthpower mixing rule
Total wall time: 0:00:55
