LAMMPS (29 Aug 2024 - Development - patch_29Aug2024-1065-gcf05700897)
Reading data file ...
  orthogonal box = (-2.3164529 -26.16 -26.16) to (13.21044 26.16 26.16)
  1 by 1 by 1 MPI processor grid
  reading atom labelmap ...
  reading bond labelmap ...
  reading angle labelmap ...
  reading dihedral labelmap ...
  reading improper labelmap ...
  reading atoms ...
  3392 atoms
  reading velocities ...
  3392 velocities
  scanning bonds ...
  8 = max bonds/atom
  scanning angles ...
  18 = max angles/atom
  scanning dihedrals ...
  27 = max dihedrals/atom
  scanning impropers ...
  26 = max impropers/atom
  orthogonal box = (-2.3164529 -26.16 -26.16) to (13.21044 26.16 26.16)
  1 by 1 by 1 MPI processor grid
  reading bonds ...
  3488 bonds
  reading angles ...
  5376 angles
  reading dihedrals ...
  7552 dihedrals
  reading impropers ...
  1792 impropers
Finding 1-2 1-3 1-4 neighbors ...
  special bond factors lj:    0        0        1       
  special bond factors coul:  0        0        1       
     3 = max # of 1-2 neighbors
     6 = max # of 1-3 neighbors
    34 = max # of special neighbors
  special bonds CPU = 0.001 seconds
  read_data CPU = 0.091 seconds
Read molecule template mol1:
2styrene_unreacted
  1 molecules
  0 fragments
  32 atoms with max type 4
  32 bonds with max type 11
  48 angles with max type 19
  64 dihedrals with max type 21
  16 impropers with max type 9
Read molecule template mol2:
2styrene_reacted
  1 molecules
  0 fragments
  32 atoms with max type 6
  33 bonds with max type 13
  54 angles with max type 22
  79 dihedrals with max type 19
  14 impropers with max type 8
Read molecule template mol3:
chain_plus_styrene_unreacted
  1 molecules
  0 fragments
  46 atoms with max type 6
  47 bonds with max type 13
  75 angles with max type 22
  105 dihedrals with max type 21
  21 impropers with max type 9
Read molecule template mol4:
chain_plus_styrene_reacted
  1 molecules
  0 fragments
  46 atoms with max type 6
  48 bonds with max type 13
  81 angles with max type 22
  121 dihedrals with max type 19
  19 impropers with max type 8
Read molecule template mol5:
chain_chain_unreacted
  1 molecules
  0 fragments
  50 atoms with max type 6
  51 bonds with max type 13
  84 angles with max type 22
  118 dihedrals with max type 19
  20 impropers with max type 8
Read molecule template mol6:
chain_chain_reacted
  1 molecules
  0 fragments
  50 atoms with max type 6
  52 bonds with max type 13
  90 angles with max type 22
  135 dihedrals with max type 19
  18 impropers with max type 3
dynamic group bond_react_MASTER_group defined
dynamic group statted_grp_REACT defined

CITE-CITE-CITE-CITE-CITE-CITE-CITE-CITE-CITE-CITE-CITE-CITE-CITE

Your simulation uses code contributions which should be cited:
- Type Label Framework: https://doi.org/10.1021/acs.jpcb.3c08419
- fix bond/react: reacter.org doi:10.1016/j.polymer.2017.09.038, doi:10.1021/acs.macromol.0c02012, doi:10.1016/j.cpc.2024.109287
The log file lists these citations in BibTeX format.

CITE-CITE-CITE-CITE-CITE-CITE-CITE-CITE-CITE-CITE-CITE-CITE-CITE

PPPM initialization ...
WARNING: System is not charge neutral, net charge = -0.04 (../kspace.cpp:327)
  using 12-bit tables for long-range coulomb (../kspace.cpp:342)
  G vector (1/distance) = 0.23923374
  grid = 6 15 15
  stencil order = 5
  estimated absolute RMS force accuracy = 0.01750679
  estimated relative force accuracy = 5.2721177e-05
  using double precision KISS FFT
  3d grid and FFT values/proc = 4400 1350
Generated 21 of 21 mixed pair_coeff terms from sixthpower/sixthpower mixing rule
Neighbor list info ...
  update: every = 1 steps, delay = 0 steps, check = yes
  max neighbors/atom: 2000, page size: 100000
  master list distance cutoff = 10.5
  ghost atom cutoff = 10.5
  binsize = 5.25, bins = 3 10 10
  2 neighbor lists, perpetual/occasional/extra = 1 1 0
  (1) pair lj/class2/coul/long, perpetual
      attributes: half, newton on
      pair build: half/bin/newton
      stencil: half/bin/3d
      bin: standard
  (2) fix bond/react, occasional, copy from (1)
      attributes: half, newton on
      pair build: copy
      stencil: none
      bin: none
Setting up Verlet run ...
  Unit style    : real
  Current step  : 0
  Time step     : 1
WARNING: Inconsistent image flags (../domain.cpp:1051)
Per MPI rank memory allocation (min/avg/max) = 35.86 | 35.86 | 35.86 Mbytes
   Step          Temp          Press         Density       f_rxn1[1]      f_rxn1[2]      f_rxn1[3]   
         0   302.27771     -9596.9435      0.90392574     0              0              0            
       250   389.53088     -13850.265      0.90392574     3              0              0            
       500   485.68521     -9007.2658      0.90392574     8              0              0            
       750   542.3226      -23248.667      0.90392574     16             0              1            
      1000   534.7719      -12762.21       0.90392574     19             1              1            
      1250   516.99898     -11075.439      0.90392574     24             1              3            
      1500   543.76181     -7868.2943      0.90392574     30             1              4            
      1750   513.87518     -25520.029      0.90392574     37             1              8            
      2000   535.3342      -12037.406      0.90392574     41             3              12           
      2250   531.66857     -8743.6113      0.90392574     43             4              13           
      2500   527.99965     -12390.768      0.90392574     45             4              17           
      2750   530.87307     -62829.341      0.90392574     47             5              20           
      3000   521.16815     -15127.611      0.90392574     50             5              22           
      3250   523.34123     -10305.497      0.90392574     54             5              23           
      3500   531.02862     -8035.5586      0.90392574     56             5              23           
      3750   537.03195     -7481.4729      0.90392574     57             7              26           
      4000   529.24999     -131818.3       0.90392574     57             7              28           
      4250   535.47954     -15352.285      0.90392574     62             7              31           
      4500   530.34472     -9252.827       0.90392574     63             8              32           
      4750   534.81427     -51105.955      0.90392574     67             8              35           
      5000   522.77673     -58794.632      0.90392574     68             8              38           
      5250   534.0386      -11023.165      0.90392574     69             9              38           
      5500   533.83622     -179338.2       0.90392574     70             9              41           
      5750   533.65206     -9994.6046      0.90392574     71             9              45           
      6000   529.82185     -8416.1706      0.90392574     72             9              46           
      6250   531.81262     -71335.905      0.90392574     74             9              50           
      6500   542.45727     -208291.06      0.90392574     75             9              51           
      6750   519.63414     -8612.4281      0.90392574     75             9              51           
      7000   530.64062     -10287.366      0.90392574     75             9              51           
      7250   520.41821     -8764.4035      0.90392574     75             9              52           
      7500   531.01859     -7844.5152      0.90392574     77             11             53           
      7750   527.27692     -9686.8375      0.90392574     77             12             54           
      8000   536.78229     -10465.507      0.90392574     78             12             54           
      8250   517.53142     -18790.931      0.90392574     78             12             55           
      8500   547.23107     -11464.695      0.90392574     78             12             57           
      8750   529.14376     -9877.1628      0.90392574     78             12             57           
      9000   526.70037     -12063.703      0.90392574     78             12             58           
      9250   541.9196      -8608.9846      0.90392574     79             12             59           
      9500   516.09736     -8818.5419      0.90392574     79             13             59           
      9750   548.34487     -26718.708      0.90392574     79             13             62           
     10000   530.89214     -11239.132      0.90392574     79             13             62           
Loop time of 230.245 on 1 procs for 10000 steps with 3392 atoms

Performance: 3.753 ns/day, 6.396 hours/ns, 43.432 timesteps/s, 147.322 katom-step/s
99.4% CPU use with 1 MPI tasks x no OpenMP threads

MPI task timing breakdown:
Section |  min time  |  avg time  |  max time  |%varavg| %total
---------------------------------------------------------------
Pair    | 92.741     | 92.741     | 92.741     |   0.0 | 40.28
Bond    | 51.39      | 51.39      | 51.39      |   0.0 | 22.32
Kspace  | 11.155     | 11.155     | 11.155     |   0.0 |  4.85
Neigh   | 19.65      | 19.65      | 19.65      |   0.0 |  8.53
Comm    | 0.625      | 0.625      | 0.625      |   0.0 |  0.27
Output  | 2.331      | 2.331      | 2.331      |   0.0 |  1.01
Modify  | 52.174     | 52.174     | 52.174     |   0.0 | 22.66
Other   |            | 0.1784     |            |       |  0.08

Nlocal:           3392 ave        3392 max        3392 min
Histogram: 1 0 0 0 0 0 0 0 0 0
Nghost:          12379 ave       12379 max       12379 min
Histogram: 1 0 0 0 0 0 0 0 0 0
Neighs:         654516 ave      654516 max      654516 min
Histogram: 1 0 0 0 0 0 0 0 0 0

Total # of neighbors = 654516
Ave neighs/atom = 192.95873
Ave special neighs/atom = 10.228774
Neighbor list builds = 822
Dangerous builds = 0
System init for write_restart ...
PPPM initialization ...
  using 12-bit tables for long-range coulomb (../kspace.cpp:342)
  G vector (1/distance) = 0.23923374
  grid = 6 15 15
  stencil order = 5
  estimated absolute RMS force accuracy = 0.01750679
  estimated relative force accuracy = 5.2721177e-05
  using double precision KISS FFT
  3d grid and FFT values/proc = 4400 1350
Generated 21 of 21 mixed pair_coeff terms from sixthpower/sixthpower mixing rule
System init for write_data ...
PPPM initialization ...
  using 12-bit tables for long-range coulomb (../kspace.cpp:342)
  G vector (1/distance) = 0.23923374
  grid = 6 15 15
  stencil order = 5
  estimated absolute RMS force accuracy = 0.01750679
  estimated relative force accuracy = 5.2721177e-05
  using double precision KISS FFT
  3d grid and FFT values/proc = 4400 1350
Generated 21 of 21 mixed pair_coeff terms from sixthpower/sixthpower mixing rule
Total wall time: 0:03:50
