LAMMPS data file via write_data, version 27 Jun 2024, timestep = 50000, units = real

3362 atoms
12 atom types
3816 bonds
14 bond types
7002 angles
27 angle types
11518 dihedrals
34 dihedral types
1902 impropers
6 improper types

7.616111406917806 40.38388859308229 xlo xhi
10.616111406917806 43.38388859308229 ylo yhi
10.616111406917806 43.38388859308229 zlo zhi

Atom Type Labels

1 c2
2 c_1
3 o
4 hc
5 ho
6 o_1
7 na
8 hn
9 n
10 hw
11 o*
12 cp

Bond Type Labels

1 c2-hc
2 c2-c2
3 c_1-o
4 c2-c_1
5 c_1-o_1
6 o-ho
7 na-c2
8 na-hn
9 n-c2
10 n-hn
11 n-c_1
12 c2-na
13 hw-o*
14 cp-cp

Angle Type Labels

1 hc-c2-hc
2 c2-c2-hc
3 c2-c2-c2
4 c2-c_1-o_1
5 o-c_1-o_1
6 c2-c_1-o
7 c_1-o-ho
8 c2-c2-c_1
9 c_1-c2-hc
10 c2-c2-na
11 na-c2-hc
12 c2-na-hn
13 hn-na-hn
14 c2-n-hn
15 c2-n-c_1
16 hn-n-hn
17 hn-n-c_1
18 n-c2-c2
19 n-c2-hc
20 hc-c2-c_1
21 n-c_1-c2
22 o_1-c_1-o
23 n-c_1-o_1
24 n-c_1-o
25 na-c2-c2
26 hw-o*-hw
27 cp-cp-cp

Dihedral Type Labels

1 c_1-c2-c2-hc
2 hc-c2-c2-hc
3 c2-c2-c2-c_1
4 c2-c2-c2-hc
5 c2-c2-c2-c2
6 c2-c_1-o-ho
7 o_1-c_1-o-ho
8 c2-c2-c_1-o
9 hc-c2-c_1-o
10 c2-c2-c_1-o_1
11 hc-c2-c_1-o_1
12 na-c2-c2-hc
13 c2-c2-c2-na
14 c2-c2-na-hn
15 hn-na-c2-hc
16 hn-n-c2-c2
17 hn-n-c2-hc
18 c_1-n-c2-c2
19 c_1-n-c2-hc
20 c2-n-c_1-c2
21 c2-n-c_1-o_1
22 c2-n-c_1-o
23 hn-n-c_1-c2
24 hn-n-c_1-o_1
25 hn-n-c_1-o
26 n-c2-c2-c2
27 n-c2-c2-hc
28 c2-c2-c_1-n
29 hc-c2-c_1-n
30 n-c_1-o-ho
31 hn-na-c2-c2
32 hc-c2-na-hn
33 na-c2-c2-c2
34 cp-cp-cp-cp

Improper Type Labels

1 c2-c_1-o-o_1
2 c2-na-hn-hn
3 c2-c_1-o_1-o
4 c2-n-hn-c_1
5 n-c_1-c2-o_1
6 cp-cp-cp-cp

Masses

1 12.0112
2 12.0112
3 15.9994
4 1.00797
5 1.00797
6 15.9994
7 14.0067
8 1.00797
9 14.0067
10 1.00797
11 15.9994
12 12.0112

Pair Coeffs # lj/class2/coul/long/omp

1 0.054 4.01
2 0.12 3.81
3 0.24 3.535
4 0.02 2.7
5 0.013 1.098
6 0.267 3.3
7 0.065 4.07
8 0.013 1.098
9 0.106 4.07
10 0.013 1.098
11 0.26 3.61
12 0.064 4.01

Bond Coeffs # class2/omp

1 1.101 345 -691.89 844.6
2 1.53 299.67 -501.77 679.81
3 1.3649 368.731 -832.478 1274.02
4 1.5202 253.707 -423.037 396.9
5 1.202 851.14 -1918.49 2160.77
6 0.965 532.506 -1282.9 2004.77
7 1.457 365.805 -699.637 998.484
8 1.006 466.74 -1073.6 1251.11
9 1.452 327.166 -547.899 526.5
10 1.01 462.75 -1053.63 1545.76
11 1.416 359.159 -558.473 1146.38
12 1.457 365.805 -699.637 998.484
13 0.97 563.28 -1428.22 1902.12
14 1.417 470.836 -627.618 1327.63

Angle Coeffs # class2/omp

1 107.66 39.641 -12.921 -2.4318
2 110.77 41.453 -10.604 5.129
3 112.67 39.516 -7.443 -9.5583
4 123.145 55.5431 -17.2123 0.1348
5 118.986 98.6813 -22.2485 10.3673
6 123.145 55.5431 -17.2123 0.1348
7 111.254 53.5303 -11.8454 -11.5405
8 108.53 51.9747 -9.4851 -10.9985
9 107.734 40.6099 -28.8121 0
10 111.91 60.7147 -13.3366 -13.0785
11 110.62 51.3137 -6.7198 -2.6003
12 110.954 50.8652 -4.4522 -10.0298
13 107.067 45.252 -7.5558 -9.512
14 113.868 45.9271 -20.0824 0
15 111.037 31.8958 -6.6942 -6.837
16 116.94 37.5749 -8.6676 0
17 117.961 37.4964 -8.1837 0
18 114.302 42.6589 -10.5464 -9.3243
19 108.937 57.401 2.9374 0
20 107.734 40.6099 -28.8121 0
21 116.926 39.4193 -10.9945 -8.7733
22 118.986 98.6813 -22.2485 10.3673
23 125.542 92.572 -34.48 -11.1871
24 125.542 92.572 -34.48 -11.1871
25 111.91 60.7147 -13.3366 -13.0785
26 103.7 49.84 -11.6 -8
27 118.9 61.0226 -34.9931 0

BondBond Coeffs

1 5.3316 1.101 1.101
2 3.3872 1.53 1.101
3 0 1.53 1.53
4 0 1.5202 1.3649
5 0 1.3649 1.202
6 46.0685 1.5202 1.202
7 0 1.3649 0.965
8 5.4199 1.53 1.5202
9 0.7115 1.5202 1.101
10 4.6217 1.53 1.457
11 12.426 1.457 1.101
12 -6.4168 1.457 1.006
13 -1.8749 1.006 1.006
14 -3.471 1.452 1.01
15 12.1186 1.452 1.416
16 -0.5655 1.01 1.01
17 -4.3126 1.01 1.416
18 3.5446 1.452 1.53
19 15.2994 1.452 1.101
20 0.7115 1.101 1.5202
21 0 1.416 1.5202
22 0 1.202 1.3649
23 138.495 1.416 1.202
24 0 1.416 1.3649
25 4.6217 1.457 1.53
26 -9.5 0.97 0.97
27 68.2856 1.417 1.417

BondAngle Coeffs

1 18.103 18.103 1.101 1.101
2 20.754 11.421 1.53 1.101
3 8.016 8.016 1.53 1.53
4 0 0 1.5202 1.3649
5 0 0 1.3649 1.202
6 34.9982 37.1298 1.5202 1.202
7 0 0 1.3649 0.965
8 18.1678 15.8758 1.53 1.5202
9 12.4632 9.1765 1.5202 1.101
10 6.0876 16.5702 1.53 1.457
11 42.4332 13.4582 1.457 1.101
12 31.8096 20.5799 1.457 1.006
13 28.0322 28.0322 1.006 1.006
14 11.8828 5.9339 1.452 1.01
15 3.7812 14.8633 1.452 1.416
16 19.8125 19.8125 1.01 1.01
17 10.8422 29.5743 1.01 1.416
18 4.6031 -5.479 1.452 1.53
19 34.8907 10.6917 1.452 1.101
20 9.1765 12.4632 1.101 1.5202
21 0 0 1.416 1.5202
22 0 0 1.202 1.3649
23 62.7124 52.4045 1.416 1.202
24 0 0 1.416 1.3649
25 16.5702 6.0876 1.457 1.53
26 22.35 22.35 0.97 0.97
27 28.8708 28.8708 1.417 1.417

Dihedral Coeffs # class2/omp

1 -0.0228 0 0.028 0 -0.1863 0
2 -0.1432 0 0.0617 0 -0.1083 0
3 0.0972 0 0.0722 0 -0.2581 0
4 0 0 0.0316 0 -0.1681 0
5 0 0 0.0514 0 -0.143 0
6 0 0 0 0 0 0
7 -2.7332 0 2.9646 0 -0.0155 0
8 0 0 0 0 0 0
9 0 0 0 0 0 0
10 0.0442 0 0.0292 0 0.0562 0
11 -0.1804 0 0.0012 0 0.0371 0
12 -0.2428 0 0.4065 0 -0.3079 0
13 0.1764 0 0.1766 0 -0.5206 0
14 -1.1506 0 -0.6344 0 -0.1845 0
15 -0.5187 0 -0.4837 0 -0.1692 0
16 -0.0483 0 -0.0077 0 -0.0014 0
17 -0.0148 0 -0.0791 0 -0.0148 0
18 0.0143 0 -0.0132 0 0.0091 0
19 0.0219 0 -0.026 0 0.0714 0
20 -0.7532 0 2.7392 0 0.0907 0
21 0.8297 0 3.7234 0 -0.0495 0
22 0 0 0 0 0 0
23 0 0 0 0 0 0
24 -1.6938 0 2.7386 0 -0.336 0
25 0 0 0 0 0 0
26 0.0972 0 0.0722 0 -0.2581 0
27 -0.0228 0 0.028 0 -0.1863 0
28 0.1693 0 -0.009 0 -0.0687 0
29 0.1693 0 -0.009 0 -0.0687 0
30 0 0 0 0 0 0
31 -1.1506 0 -0.6344 0 -0.1845 0
32 -0.5187 0 -0.4837 0 -0.1692 0
33 0.1764 0 0.1766 0 -0.5206 0
34 8.3667 0 1.1932 0 0 0

AngleAngleTorsion Coeffs

1 -5.3624 108.53 110.77
2 -12.564 110.77 110.77
3 -0.3801 112.67 108.53
4 -16.164 112.67 110.77
5 -22.045 112.67 112.67
6 0 0 111.254
7 0 118.985 111.254
8 0 108.53 0
9 0 107.734 0
10 -8.019 108.53 123.145
11 -15.3496 107.734 123.145
12 -15.7572 111.91 110.77
13 -27.3953 112.67 111.91
14 -7.5499 111.91 110.954
15 -10.4258 110.62 110.954
16 -4.6337 113.868 114.302
17 -6.659 113.868 108.937
18 -7.4314 111.037 114.302
19 -8.1335 111.037 108.937
20 -6.5335 111.037 116.926
21 -15.5547 111.037 125.542
22 0 111.037 0
23 -1.3234 117.961 116.926
24 -7.3186 117.961 125.542
25 0 117.961 0
26 -1.0631 114.302 112.67
27 -12.7974 114.302 110.77
28 -5.4514 108.53 116.926
29 -12.2417 107.734 116.926
30 0 0 111.254
31 -7.5499 110.954 111.91
32 -10.4258 110.954 110.62
33 -27.3953 111.91 112.67
34 0 118.9 118.9

EndBondTorsion Coeffs

1 -0.0204 0.3628 -0.4426 -0.0097 -0.0315 -0.0755 1.5202 1.101
2 0.213 0.312 0.0777 0.213 0.312 0.0777 1.101 1.101
3 0.0062 -0.0002 0.0036 0.0055 0.006 -0.0009 1.53 1.5202
4 0.2486 0.2422 -0.0925 0.0814 0.0591 0.2219 1.53 1.101
5 -0.0732 0 0 -0.0732 0 0 1.53 1.53
6 0 0 0 0 0 0 1.5202 0.965
7 0 0 0 0 0 0 1.202 0.965
8 0 0 0 0 0 0 1.53 1.3649
9 0 0 0 0 0 0 1.101 1.3649
10 0.2654 0.0503 0.1046 -0.281 0.0816 -0.1522 1.53 1.202
11 1.2143 0.2831 0.3916 -0.2298 0.0354 0.3853 1.101 1.202
12 0.1022 0.209 0.6433 0.196 0.7056 0.112 1.457 1.101
13 0.1032 0.5896 -0.4836 0.0579 -0.0043 -0.1906 1.53 1.457
14 -0.9466 0.9356 -0.5542 0.057 0.0625 0.4112 1.53 1.006
15 -1.1685 0.9266 -0.0993 0.085 0.3061 0.2104 1.101 1.006
16 -0.0992 -0.0727 -0.4139 0.132 0.0015 0.1324 1.01 1.53
17 -0.4894 0.1644 0.3105 -0.8983 0.2826 0.0881 1.01 1.101
18 -0.1245 -0.9369 0.7781 -0.2033 0.0035 0.056 1.416 1.53
19 0.2292 1.1732 -0.058 -0.3667 0.8197 0.1335 1.416 1.101
20 0.2299 -0.1141 -0.1424 0.0933 -0.4631 0.2883 1.452 1.5202
21 0.1598 0.7253 -0.1007 0.1226 -2.1326 0.5581 1.452 1.202
22 0 0 0 0 0 0 1.452 1.3649
23 0.6413 0.1676 0.144 -0.6979 0.5619 0.4212 1.01 1.5202
24 0.1214 0.1936 0.0816 -0.7604 -2.6431 1.2467 1.01 1.202
25 0 0 0 0 0 0 1.01 1.3649
26 -0.0797 -0.0406 0.0255 0.0742 0.0105 0.0518 1.452 1.53
27 0.3022 0.2513 0.4641 -0.0601 -0.3763 -0.1876 1.452 1.101
28 -0.2631 -0.0076 -0.1145 -0.2751 -0.3058 -0.1767 1.53 1.416
29 -0.0268 0.7836 0.0035 0.3552 -0.2685 0.5834 1.101 1.416
30 0 0 0 0 0 0 1.416 0.965
31 0.057 0.0625 0.4112 -0.9466 0.9356 -0.5542 1.006 1.53
32 0.085 0.3061 0.2104 -1.1685 0.9266 -0.0993 1.006 1.101
33 0.0579 -0.0043 -0.1906 0.1032 0.5896 -0.4836 1.457 1.53
34 -0.1185 6.3204 0 -0.1185 6.3204 0 1.417 1.417

MiddleBondTorsion Coeffs

1 -3.5039 1.2458 -0.761 1.53
2 -14.261 -0.5322 -0.4864 1.53
3 -1.5945 0.2267 -0.6911 1.53
4 -14.879 -3.6581 -0.3138 1.53
5 -17.787 -7.1877 0 1.53
6 0 0 0 1.3649
7 0 0 0 1.3649
8 0 0 0 1.5202
9 0 0 0 1.5202
10 0.3388 -0.1096 0.1219 1.5202
11 0.2359 0.9139 0.9594 1.5202
12 -10.4959 -0.7647 -0.0545 1.53
13 -15.4174 -7.3055 -1.0749 1.53
14 -2.2208 0.5479 -0.3527 1.457
15 -3.4611 1.6996 -0.6007 1.457
16 -3.5406 -3.3866 0.0352 1.452
17 -1.1752 2.8058 0.8083 1.452
18 -3.9501 -0.4002 -0.6798 1.452
19 -0.6899 -2.2646 1.1579 1.452
20 0 0 0 1.416
21 -8.8301 14.3079 -1.7716 1.416
22 0 0 0 1.416
23 0 0 0 1.416
24 -0.9084 6.1447 -0.4852 1.416
25 0 0 0 1.416
26 -4.2324 -3.3023 -1.3244 1.53
27 -4.1028 -0.5941 -0.047 1.53
28 0 0 0 1.5202
29 0 0 0 1.5202
30 0 0 0 1.3649
31 -2.2208 0.5479 -0.3527 1.457
32 -3.4611 1.6996 -0.6007 1.457
33 -15.4174 -7.3055 -1.0749 1.53
34 27.5989 -2.312 0 1.417

BondBond13 Coeffs

1 0 1.5202 1.101
2 0 1.101 1.101
3 0 1.53 1.5202
4 0 1.53 1.101
5 0 1.53 1.53
6 0 1.5202 0.965
7 0 1.202 0.965
8 0 1.53 1.3649
9 0 1.101 1.3649
10 0 1.53 1.202
11 0 1.101 1.202
12 0 1.457 1.101
13 0 1.53 1.457
14 0 1.53 1.006
15 0 1.101 1.006
16 0 1.01 1.53
17 0 1.01 1.101
18 0 1.416 1.53
19 0 1.416 1.101
20 0 1.452 1.5202
21 0 1.452 1.202
22 0 1.452 1.3649
23 0 1.01 1.5202
24 0 1.01 1.202
25 0 1.01 1.3649
26 0 1.452 1.53
27 0 1.452 1.101
28 0 1.53 1.416
29 0 1.101 1.416
30 0 1.416 0.965
31 0 1.006 1.53
32 0 1.006 1.101
33 0 1.457 1.53
34 53 1.417 1.417

AngleTorsion Coeffs

1 -0.7466 -0.9448 -0.6321 0.0162 1.4211 -1.4092 108.53 110.77
2 -0.8085 0.5569 -0.2466 -0.8085 0.5569 -0.2466 110.77 110.77
3 -0.2607 0.3203 -0.2283 0.0515 -0.0674 -0.0474 112.67 108.53
4 -0.2454 0 -0.1136 0.3113 0.4516 -0.1988 112.67 110.77
5 0.3886 -0.3139 0.1389 0.3886 -0.3139 0.1389 112.67 112.67
6 0 0 0 0 0 0 0 111.254
7 0 0 0 0 0 0 118.985 111.254
8 0 0 0 0 0 0 108.53 0
9 0 0 0 0 0 0 107.734 0
10 0.0885 -1.3703 -0.5452 0.675 0.5965 0.6725 108.53 123.145
11 9.1299 -0.4847 0.3582 -1.4946 0.7308 -0.2083 107.734 123.145
12 -1.1075 0.282 0.8318 0.5111 1.6328 -1.0155 111.91 110.77
13 -1.9225 -1.345 0.221 2.0125 0.944 -2.7612 112.67 111.91
14 -3.343 4.4558 -0.0346 0.2873 -0.8072 -0.096 111.91 110.954
15 -3.9582 2.0063 0.3213 -0.4294 -0.4442 -0.6141 110.62 110.954
16 -0.5807 0.2041 -0.1384 -2.8967 2.7084 -0.0375 113.868 114.302
17 -0.3868 0.2041 0.0445 -3.7022 1.3876 0.2393 113.868 108.937
18 -1.523 1.1296 0.7167 -0.7555 0.0564 1.2177 111.037 114.302
19 0.0372 -0.3418 -0.0775 -1.5157 2.0781 0.5364 111.037 108.937
20 5.916 1.7856 0.4052 4.2133 2.9302 3.2903 111.037 116.926
21 7.4427 2.1505 -0.2206 4.4466 4.0317 1.7129 111.037 125.542
22 0 0 0 0 0 0 111.037 0
23 1.9306 0.2105 0.0557 -2.2134 1.2909 0.9726 117.961 116.926
24 2.3848 0.703 0.1399 -2.6238 0.3606 0.5474 117.961 125.542
25 0 0 0 0 0 0 117.961 0
26 0.2039 0.1602 -0.7946 -0.5501 -1.6982 0.2485 114.302 112.67
27 -1.982 0.2325 -0.3928 -1.2469 1.6933 -1.2081 114.302 110.77
28 2.1802 -0.0335 -1.3816 2.1221 0.5032 -0.0767 108.53 116.926
29 7.095 0.0075 0.691 2.0013 0.5068 0.8406 107.734 116.926
30 0 0 0 0 0 0 0 111.254
31 0.2873 -0.8072 -0.096 -3.343 4.4558 -0.0346 110.954 111.91
32 -0.4294 -0.4442 -0.6141 -3.9582 2.0063 0.3213 110.954 110.62
33 2.0125 0.944 -2.7612 -1.9225 -1.345 0.221 111.91 112.67
34 1.9767 1.0239 0 1.9767 1.0239 0 118.9 118.9

Improper Coeffs # class2/omp

1 0 0
2 0 0
3 0 0
4 0 0
5 24.3329 0
6 7.1794 0

AngleAngle Coeffs

1 0 0 0 0 118.985 123.145
2 0.2738 -0.4825 0.2738 110.77 107.66 110.77
3 -1.3199 -1.3199 0.1184 112.67 110.77 110.77
4 2.0403 -1.8202 1.0827 108.53 107.734 110.77
5 0 0 0 116.926 123.145 125.542
6 0 0 0 118.9 118.9 118.9

Atoms # full

2002 61 1 -0.17544 9.746076042670834 12.984810693815929 14.577880279915012 0 1 1
2010 61 4 0.16772 8.81684827263762 13.128800715721265 15.14261315144429 0 1 1
2009 61 4 0.17321 10.533847661764417 13.547035774055235 15.145284537640295 0 1 1
2003 61 7 -0.79903 9.580304127228537 13.452308386133712 13.177842517994726 0 1 1
1927 89 4 0.17708 12.19917730174768 15.489998599649596 15.528291411759687 0 0 1
2011 61 8 0.33245 10.209765971171809 13.030144483939813 12.573993735664803 0 1 1
2021 61 4 0.18425 7.695606331331522 11.418927603381523 14.561340223945532 0 1 1
2012 61 8 0.3448 8.619157881825569 13.32075712157377 12.913009219300413 0 1 1
585 41 11 -0.76 8.546415214472432 14.512226569183246 41.68512610135563 1 0 0
1928 89 4 0.15806 12.91595624366626 17.144086519555234 15.536396049176329 0 0 1
1917 89 1 -0.17576 12.003228872091684 16.622321507382516 15.534409582671996 0 0 1
1930 89 4 0.18224 11.857300661452236 16.688474734866876 13.393899047492749 0 0 1
1925 89 8 0.33793 10.156056716141169 16.57916882002326 16.624071761262538 0 0 1
1276 68 4 0.1849 15.757034322890416 12.130005532793291 13.168538726993358 0 0 1
1260 68 4 0.18951 15.619564053768787 14.49826071915794 12.242692713995444 0 0 1
1275 68 4 0.18777 14.002693979261695 12.700645861416069 12.838986187147574 0 0 1
1253 68 1 -0.76306 15.929508333077353 14.527442033476643 13.300455701813162 0 0 1
1272 68 4 0.1772 14.14893091615529 14.312584795477452 14.686398587914171 0 0 1
1271 68 1 -0.38394 15.085397693492435 13.79332843547635 14.348135794319985 0 0 1
1274 68 1 -0.37058 14.818561043334709 12.482770296117575 13.601431091961695 0 0 1
1273 68 4 0.18425 15.800972636378948 13.65562232708748 15.267161713530001 0 0 1
1259 68 4 0.19062 16.940726570200063 14.017739643697059 13.369509947473233 0 0 1
1263 68 8 0.29346 17.458502216786673 15.984049671234247 12.26704200019057 0 0 1
1261 68 4 0.1836 16.079270980221914 16.24092282270653 14.669922075597665 0 0 1
1254 68 1 -0.01149 15.953390003957928 15.936205469261138 13.630598413782035 0 0 1
1255 68 9 -0.60533 16.915603481091967 16.612551271641944 12.821421275204713 0 0 1
1262 68 4 0.15396 14.983997498090769 16.35587897705232 13.40412422756411 0 0 1
1833 91 4 0.17321 19.58063966652504 13.747199804227064 16.426691301406294 0 0 1
1831 91 4 0.19062 21.826508158155782 14.150384637733245 15.580889828110879 0 0 1
1731 87 4 0.21572 21.559028197820034 11.381859481419932 13.32150201428008 0 0 1
1723 87 1 -0.46692 21.572072627135835 10.87155204658795 12.262133674661918 0 0 1
1733 87 4 0.21541 20.498939953717954 13.640003667334108 12.422593034058073 0 0 1
1721 87 4 0.19609 19.72482619768116 11.42672589260192 11.474531131759456 0 0 1
1717 87 1 -0.37128 20.742782994131375 11.732229657639968 11.262804115328253 0 0 1
1724 87 1 -0.38182 20.988805802048983 13.247121101549936 11.51210130331991 0 0 1
1732 87 4 0.18182 22.04363271715706 13.348891547041102 11.744941238149979 0 0 1
1730 87 4 0.20664 21.201409355801783 42.65379178617777 12.419422851022462 0 -1 1
1718 87 2 0.77363 23.0193188756959 10.864675453640212 11.879061182875654 0 0 1
1727 87 6 -0.56991 23.64387290996393 11.840929416154598 11.785932293600997 0 0 1
1772 88 6 -0.58244 23.506578872638208 15.122924226648909 11.095064508567633 0 0 1
3034 101 12 0 24.288854521406574 13.718480928083665 14.72384345831539 0 0 0
3033 101 12 0 24.382370887816442 14.826320296417725 15.538093360605034 0 0 0
3042 101 12 0 28.011987802981935 14.887265861712521 15.98886045366475 0 0 0
3057 101 12 0 27.625108774612148 12.324641313833663 15.078377928096076 0 0 0
3043 101 12 0 26.79557517918352 14.596341309247157 15.386186938422945 0 0 0
3044 101 12 0 26.639416596346276 13.316819358455396 14.840740572875873 0 0 0
3045 101 12 0 25.322579375235616 12.84547068304084 14.52947791163795 0 0 0
1775 88 4 0.21572 28.144855895217322 14.449516555170977 12.963245739626302 0 0 1
3032 101 12 0 25.69612982705767 15.389365624823974 15.737230139466003 0 0 0
3056 101 12 0 28.87289158707144 12.698781448376582 15.556230585778584 0 0 0
3055 101 12 0 29.11947017717412 14.036296006677 15.913572235509502 0 0 0
1773 88 3 -0.68598 24.781959301122995 16.113118499931897 12.52638060285906 0 0 1
3046 101 12 0 25.1834010143775 11.468142417398115 14.344881721734865 0 0 0
1778 88 4 0.20587 26.10977894853908 14.131918094452526 11.997099766908455 0 0 1
1767 88 1 -0.46692 28.805742412594586 15.067971593902303 12.24994715025187 0 0 1
1075 59 4 0.22795 28.645024417509525 10.912304502557141 11.050769983675925 0 0 1
1779 88 4 0.22795 25.22504171589516 13.739550178770743 43.25464267564384 0 0 0
1769 88 1 -0.47583 25.70226051370086 14.536325285439696 11.046274359696305 0 0 1
1770 88 2 0.78608 24.633933756422387 15.511386824482912 11.350097018420277 0 0 1
3067 101 12 0 29.840249387711534 11.739431360857163 15.81782115225412 0 0 0
2882 101 12 0 32.69537018368526 13.926272693578795 16.608038268570812 0 0 0
3065 101 12 0 31.418023280203897 13.481278493602996 16.291671230028303 0 0 0
3054 101 12 0 30.396310694153094 14.395234717531071 16.354669735355156 0 0 0
3066 101 12 0 31.141478476889283 12.133189498246008 16.081414760566034 0 0 0
1701 39 4 0.1836 32.76456008126962 12.131018473929316 13.489940605254354 0 0 1
1694 39 1 -0.01149 33.31288987632554 11.430495540698796 12.925318661674485 0 0 1
1774 88 4 0.20664 29.846052207534157 14.677496658678756 12.471919435318963 0 0 1
3079 101 12 0 32.08965441677943 11.155134173646825 16.367077422986416 0 0 0
1076 59 5 0.486 30.46608273747436 11.023367769634923 12.209741598763513 0 0 1
1702 39 4 0.15396 32.6986003736458 43.1697477402378 12.991934094341591 0 -1 1
583 39 6 -0.6553 31.067311114390936 12.342710176886847 11.536595614337598 0 0 1
1695 39 9 -0.60533 33.30530350919716 11.947469732254085 11.531528471976468 0 0 1
1250 39 4 0.20587 33.902965493919055 15.05696962224758 12.976596170726866 0 0 1
574 39 2 0.40603 32.096104116626655 12.386362997754029 10.923962719521196 0 0 1
1704 39 8 0.29346 34.23111051364794 12.268225687061866 11.225823906552256 0 0 1
1709 39 4 0.18117 37.209067512474036 13.785650215332975 15.096364918040852 0 0 1
1712 39 4 0.1772 35.282414312706436 13.360607676495677 14.120384112151154 0 0 1
1710 39 4 0.18224 38.76363288092891 13.107359901082429 14.50566628124149 0 0 1
1698 39 1 -0.76306 37.8258148214317 13.399278790255481 14.131093215404508 0 0 1
1714 39 1 -0.37058 36.98789296971852 12.208938451007556 13.678611731431742 0 0 1
1697 39 1 -0.01149 38.084627709117875 14.599524999123108 13.252633495242671 0 0 1
1711 39 1 -0.38394 35.609361286287296 12.634581130373094 13.36422272046085 0 0 1
1705 39 8 0.29346 38.747229165961436 14.892498784298477 15.100223895463285 0 0 1
1707 39 4 0.1836 38.888396169550695 14.49146920491644 12.541489942846349 0 0 1
1708 39 4 0.15396 37.226830532415555 14.997406156475376 12.72409369201616 0 0 1
1713 39 4 0.18425 35.5243387855092 13.244730697073424 12.451741557994534 0 0 1
1716 39 4 0.1849 37.515988832997785 11.848866473534981 12.780048469419691 0 0 1
1693 39 1 -0.76306 34.78541901372522 11.325281060447931 13.298547119845969 0 0 1
1715 39 4 0.18777 37.012375579649316 11.523483509537197 14.538111434286428 0 0 1
1700 39 4 0.18951 34.95097292327559 10.808543588633798 14.252553065550739 0 0 1
1699 39 4 0.19062 35.257031187156656 43.32812959430048 12.586175633925832 0 -1 1
1616 41 10 0.38 8.670982503096715 15.486824626811673 41.40154910922757 0 0 0
1696 39 9 -0.60533 38.55270135760142 15.520370913117747 14.282759860963424 0 0 1
497 36 11 -0.76 8.02544545524536 16.88706498001456 16.135192536782213 1 0 1
504 36 10 0.38 8.275563737148211 17.538051305920835 15.493536094670702 1 0 1
1935 89 4 0.18777 11.691604708184718 18.93842280747689 14.149860733847307 0 0 1
1919 89 4 0.19062 8.951619345654143 20.17055690170593 14.014286050975684 0 0 1
1918 89 1 -0.38091 11.240266409615739 16.91924085925906 14.281132053891989 0 0 1
1934 89 1 -0.37058 10.803620122228306 18.369642331638538 14.169382522560564 0 0 1
1929 89 4 0.18117 10.311667580412337 16.276924608036378 14.36614514139955 0 0 1
1936 89 4 0.1849 10.163412356626027 18.71871735832624 14.976719354540618 0 0 1
1913 89 1 -0.76306 9.498533734460866 20.020832733345166 13.091111239584492 0 0 1
1920 89 4 0.18951 10.425258390582032 20.614367961436418 12.993857142316942 0 0 1
1931 89 1 -0.38394 9.961183988868173 18.586130438167597 12.976636901833718 0 0 1
1933 89 4 0.18425 9.06502087339639 17.960715037051408 13.066564251969567 0 0 1
1932 89 4 0.1772 10.410130857727639 18.424644768720487 12.01025449247367 0 0 1
1914 89 1 -0.01149 8.602012819023486 20.677124559757544 12.010586059978273 0 0 1
1954 68 4 0.20587 12.825671954413028 20.587119283420172 14.028750515522933 1 0 1
1955 68 4 0.22795 13.016388021557413 20.20674030147682 12.227803687739046 1 0 1
825 36 10 0.38 39.78853432333786 16.922396086110236 16.163401246806057 -1 0 1
1916 89 7 -0.79111 11.224351287949947 16.791099581567956 16.79918885214396 0 0 1
1926 89 8 0.33306 10.988255927810554 17.777706148350887 16.985829855268147 0 0 1
1938 68 2 0.40603 17.15872438108069 17.951330872539017 12.587944993963921 1 0 1
1947 68 6 -0.6553 17.85910824314775 18.211934688904705 11.60188902067162 1 0 1
1950 68 4 0.21423 17.008979427116536 18.998729099912595 14.45891299470869 1 0 1
1941 68 4 0.19609 14.495337487583106 18.75573146612855 14.174958682206903 1 0 1
1943 68 1 -0.27437 16.66932071883688 19.076564220994445 13.402091252842338 1 0 1
1937 68 1 -0.72636 15.024963378238931 19.338643812456098 13.404987005327945 1 0 1
1944 68 1 -0.38182 14.758255707965139 20.892775357170123 13.373303042435063 1 0 1
1951 68 4 0.18949 17.129261068514488 20.003365266003517 12.963949195699243 1 0 1
1940 68 4 0.20049 14.655691100251863 18.897864851152818 12.520301888357872 1 0 1
1953 68 4 0.21541 15.08832972288189 21.558850903194323 14.174496090978783 1 0 1
1945 68 1 -0.47583 13.25730842471645 20.91081119128969 13.116578220370853 1 0 1
1952 68 4 0.18182 15.247710159682917 21.25798329241157 12.448176998804964 1 0 1
1172 64 4 0.18951 16.558916730089226 21.13882630271091 42.86702020830448 0 0 0
1187 64 4 0.18777 18.578737827251366 20.817527097464186 11.062408301306503 0 0 1
1825 91 1 -0.38667 21.26817940266968 14.998608278064765 16.11920958352322 0 0 1
1845 91 4 0.18425 19.809032681416703 15.335958128645965 14.527554234060513 0 0 1
1843 91 1 -0.38394 20.652787389570886 15.834431912634907 15.00154516624456 0 0 1
1847 91 4 0.18777 22.401102212897733 16.961165329151008 14.659164869370185 0 0 1
1846 91 1 -0.37058 21.691560060353716 16.56708675339933 14.09070932406719 0 0 1
1848 91 4 0.1849 22.212244446350212 15.851159702419478 13.4395333910683 0 0 1
1844 91 4 0.1772 20.079595633070625 16.703087768233146 15.589964137911444 0 0 1
1840 91 4 0.15806 20.281377996652445 18.81725604757807 11.753169963742335 0 0 1
2590 99 12 0 22.96121174521208 20.340430960892796 15.34003422855871 0 0 0
1830 91 1 -0.38091 21.141437785175878 17.91193905907103 13.454338402822572 0 0 1
1841 91 4 0.18117 20.119957514788645 18.013663150307615 13.938003564953656 0 0 1
1842 91 4 0.18224 21.82941030495706 18.66740218025584 13.761225269596418 0 0 1
1839 91 4 0.17708 20.34731169728977 17.086553702885617 11.668591956034623 0 0 1
1829 91 1 -0.17576 20.932075719248807 17.95039773707829 11.958710930365308 0 0 1
1828 91 7 -0.79111 22.189429781687974 18.15161664641819 11.195716536388314 0 0 1
1838 91 8 0.33306 22.93684251574108 17.732670263772935 11.852507012208681 0 0 1
2589 99 12 0 23.831997186850277 19.974606066055028 14.325068860014182 0 0 0
1837 91 8 0.33793 22.261775924863993 17.574749058050422 43.19776776750242 0 0 0
1188 64 4 0.1849 19.802114754538135 22.008002865446365 43.3620344985164 0 0 0
1780 88 5 0.486 25.754570174495694 16.079896902254934 12.680079880752812 0 0 1
2599 99 12 0 25.703767479168718 20.116083508806426 15.787640721748511 0 0 0
2598 99 12 0 27.07367518647883 20.130835948999362 15.988555804514148 0 0 0
2597 99 12 0 27.949227140304167 19.98629202774178 14.880341758702993 0 0 0
2588 99 12 0 25.22049346342434 19.84590884030334 14.494485190843745 0 0 0
2587 99 12 0 26.127433895327577 19.657889754952077 13.397361193802364 0 0 0
2586 99 12 0 27.50468965084977 19.752820848545 13.588538797834214 0 0 0
1771 88 6 -0.56991 27.44635077951147 16.759924523381027 13.026203063958437 0 0 1
1762 88 2 0.77363 28.55068304800207 16.434402037483263 12.784720038857591 0 0 1
2585 99 12 0 28.427443213546724 19.92294522236862 12.531990580526015 0 0 0
2574 99 12 0 25.637963875613334 19.772331046121742 12.095770319287446 0 0 0
1763 88 3 -0.68333 29.405657864841466 16.808923438163205 13.794734383295804 0 0 1
2573 99 12 0 26.483069677741963 20.02152890516161 10.989461603901457 0 0 0
2572 99 12 0 27.886059622733423 20.14483863427958 11.206409906344385 0 0 0
1241 39 1 -0.47583 33.904313110820205 15.77828318677643 12.142191374204822 0 0 1
2596 99 12 0 29.362722212178063 20.02749765100066 15.114131093475985 0 0 0
2424 99 12 0 33.47071006843788 20.007295581181463 15.811312129261418 0 0 0
2607 99 12 0 32.078440448904196 19.95148989465861 15.601214089471927 0 0 0
1244 39 6 -0.58244 32.179150584840215 16.334946626883013 13.743695541565806 0 0 1
1766 88 5 0.48328 30.32408488735518 16.853392213659934 13.472544719039574 0 0 1
2595 99 12 0 30.264064214302998 19.995953939874777 14.03922886127066 0 0 0
2594 99 12 0 31.587971115654913 19.990629324242505 14.29103788952013 0 0 0
1242 39 2 0.78608 32.58850372878977 16.38230605594849 12.585295067167579 0 0 1
2593 99 12 0 32.48005358567063 20.375359785964125 13.197617674365178 0 0 0
2584 99 12 0 29.802159241575467 20.021611180985765 12.73557600698845 0 0 0
2410 99 12 0 33.83004308002088 20.644493341506987 13.512432083309431 0 0 0
2583 99 12 0 30.63709820294179 20.444095806096264 11.659148089362045 0 0 0
2423 99 12 0 34.34799272135924 20.31874658052483 14.769769517534083 0 0 0
2582 99 12 0 31.9922468745411 20.783459481591358 11.981690734043122 0 0 0
1245 39 3 -0.68598 31.709385472928158 16.674032559058357 11.650961150749083 0 0 1
1251 39 4 0.22795 33.747390174051695 15.163936837647304 11.265876049078138 0 0 1
1252 39 5 0.486 32.169768007589134 16.615391721484077 10.823411243368117 0 0 1
1922 89 4 0.15396 9.094799429873948 20.479175876397257 11.03639844959329 0 0 1
1236 39 4 0.20049 35.487018412413484 16.080866261641763 14.095149564118929 0 0 1
1921 89 4 0.1836 7.697074550396546 20.11655408690415 12.075748960176307 0 0 1
1243 39 6 -0.6553 38.28537370757727 17.261969320647722 15.700388663024365 0 0 1
1234 39 2 0.40603 38.05087715464813 16.773189174320887 14.603029675708017 0 0 1
1246 39 4 0.21423 37.18440059782856 18.504398205582888 13.622694330597511 0 0 1
1239 39 1 -0.27437 37.223105143036044 17.409911523538355 13.51088237213347 0 0 1
1247 39 4 0.18949 37.83356994831371 17.225236448753524 12.610008558236201 0 0 1
1233 39 1 -0.72636 35.67898805306222 16.95343244234583 13.436545424517156 0 0 1
1237 39 4 0.19609 35.045271446661864 17.68158697795787 13.921042975059231 0 0 1
2433 99 12 0 36.1877474700178 20.19606266897029 16.31462832354459 0 0 0
1240 39 1 -0.38182 35.14128530636643 16.707754972528598 12.048980804617777 0 0 1
2432 99 12 0 37.54802898534182 20.417937111693547 16.58081271432493 0 0 0
2422 99 12 0 35.70190997718725 20.48577423358237 15.026265853574174 0 0 0
1248 39 4 0.18182 35.92236632075363 16.226891639965814 11.40326904071121 0 0 1
1249 39 4 0.21541 34.932772151070964 17.661949018409143 11.573172180105907 0 0 1
2441 99 12 0 9.466307361904773 22.25463137448334 16.64339237992862 1 0 0
2428 99 12 0 8.759420891022787 23.10110076296268 15.786925480476059 1 0 0
2427 99 12 0 9.034678046568178 24.486026694367364 15.681403171650656 1 0 0
1956 68 5 0.486 11.648035129638973 23.46497868353655 13.02957268443221 1 0 1
1924 89 8 0.29346 8.365074805424186 22.38052895500388 13.233357428286856 0 0 1
1949 68 3 -0.68598 12.117110620965882 22.93798614022245 13.639607699304282 1 0 1
1377 75 11 -0.76 8.869874823095499 26.86246870348298 12.72684799396662 1 0 1
1748 75 10 0.38 8.435972430867343 26.119701178987405 12.327434141819428 0 0 1
1824 90 10 0.38 10.487436115203348 25.004240989643467 11.490255386581309 1 0 1
1817 90 11 -0.76 10.50092640882929 24.612492497360194 12.377860175597243 1 0 1
1923 90 10 0.38 9.612929236009107 24.321405520843953 12.514748339697041 0 0 1
1915 89 9 -0.60533 8.427405548508561 22.07767633088939 12.267934730810532 0 0 1
2429 99 12 0 40.251272072887836 22.604674347825263 15.344058664900988 0 0 0
2416 99 12 0 7.9835545576560305 25.3325032253935 15.390548857298667 1 0 0
1814 89 2 0.40603 8.083095007514654 23.073796989232914 11.347654022430472 1 0 1
1816 89 6 -0.6553 7.886449234157615 24.237063091584506 11.695476666364637 1 0 1
1184 64 4 0.1772 17.125809357301765 23.16553533506768 11.754670985095768 0 0 1
1182 64 4 0.18224 18.233525591153846 22.091348404391486 13.367547746036077 0 0 1
1946 68 2 0.78608 12.79383584493994 22.270827620132906 12.646653681363752 1 0 1
1948 68 6 -0.58244 12.471513980802017 22.48158959713913 11.510536066157607 1 0 1
1875 93 4 0.19062 15.020992947803386 25.90028778471598 15.860326567730615 0 0 1
1876 93 4 0.18951 13.426098505371884 25.540204391901103 15.246755234400357 0 0 1
1869 93 1 -0.38667 14.485605547103797 25.799686301794882 14.920350255393117 0 0 1
1879 93 8 0.33245 17.05542777436069 25.034721450431547 14.410330982302579 0 0 1
1880 93 8 0.3448 16.745416750744454 25.4582799026709 12.898141044804143 0 0 1
1878 93 4 0.16772 14.832263120913588 23.673885514692163 14.640975414332052 0 0 1
1870 93 1 -0.17544 15.046053865548345 24.625108781181126 14.082917262087705 0 0 1
1871 93 7 -0.79903 16.501578128817727 24.714146636795075 13.661281259605026 0 0 1
1877 93 4 0.17321 14.478075431024273 24.501378625939015 13.198541962680341 0 0 1
1340 73 10 0.38 13.361556619826143 25.785878980021216 11.645005433254951 0 0 1
1170 64 1 -0.38091 19.182212967013836 22.041793704266546 12.729817125760412 0 0 1
1186 64 1 -0.37058 18.87597694006673 21.92252886243474 11.206313172167729 0 0 1
1179 64 4 0.17708 19.506352801693875 20.013849410599065 13.311191845130915 0 0 1
1180 64 4 0.15806 21.04267517412506 20.816065476274215 12.595758580973188 0 0 1
1169 64 1 -0.17576 20.140681222289018 20.959758668414977 13.248718363961649 0 0 1
1178 64 8 0.33306 19.71669058535535 21.930215681941764 15.003643190987582 0 0 1