LAMMPS data file via write_data, version 29 Aug 2024, timestep = 30000, units = real

1680 atoms
5 atom types
812 bonds
1 bond types
406 angles
1 angle types

-12.120000000000001 12.120000000000001 xlo xhi
-12.120000000000001 12.120000000000001 ylo yhi
-20.2 20.2 zlo zhi

Atom Type Labels

1 O
2 H
3 Na+
4 Cl-
5 WALL

Bond Type Labels

1 O-H

Angle Type Labels

1 H-O-H

Masses

1 15.9994
2 1.008
3 22.99
4 35.453
5 26.9815

Atoms # full

26 0 5 0 -10.576068591001484 -9.440215633825932 -16.206757417589337 0 0 0
27 0 5 0 -10.615192283179535 -11.459888146417185 -14.250337560271197 0 0 0
29 0 5 0 -8.526845705624039 -11.527952489300656 -16.204097652014376 0 0 0
30 0 5 0 -6.466482260356233 -9.605330953489489 -16.24262221369468 0 0 0
31 0 5 0 -6.421182213768126 -11.616306260501426 -14.226386467180957 0 0 0
32 0 5 0 -8.484316507620964 -9.510538016398367 -14.278270684123829 0 0 0
33 0 5 0 -4.427903583054306 -11.603228992284587 -16.22563998065371 0 0 0
36 0 5 0 -4.3965359993644055 -9.535911680788718 -14.281776765594673 0 0 0
51 0 5 0 -10.580398726348438 -7.494689125710682 -14.186300236517344 0 0 0
55 0 5 0 -6.379859949372699 -7.544302288794939 -14.288362176747928 0 0 0
57 0 5 0 -4.451439469859663 -7.588122917271721 -16.336391644284895 0 0 0
53 0 5 0 -8.533105989925645 -7.469782829946192 -16.235853320081233 0 0 0
50 0 5 0 -10.667648849709927 -5.5002515261357745 -16.20353781137779 0 0 0
54 0 5 0 -6.5279519609776715 -5.4682680109107595 -16.324152977030373 0 0 0
56 0 5 0 -8.549049763924012 -5.5457690807514135 -14.212508286211415 0 0 0
60 0 5 0 -4.500652474951429 -5.475317377292885 -14.373751175668605 0 0 0
34 0 5 0 -2.479434143242729 -9.57312345541004 -16.35498840816285 0 0 0
35 0 5 0 -2.465460375671213 -11.600403028980116 -14.200958877611466 0 0 0
37 0 5 0 -0.5389387977746922 -11.579329352676373 -16.262607945518337 0 0 0
38 0 5 0 1.5894385496759884 -9.598883943895096 -16.234937289715052 0 0 0
39 0 5 0 1.4718295046316598 -11.6172778847772 -14.204921996882296 0 0 0
40 0 5 0 -0.43864157986929103 -9.516670852108124 -14.191602683044609 0 0 0
41 0 5 0 3.51548460076076 -11.65571994231452 -16.24013503058958 0 0 0
44 0 5 0 3.4853510591077423 -9.562145708943287 -14.115708450486316 0 0 0
65 0 5 0 3.4825776498921073 -7.582304057978167 -16.211184527707246 0 0 0
59 0 5 0 -2.4923600949850693 -7.469228890928062 -14.283901583162143 0 0 0
61 0 5 0 -0.4676775009487741 -7.576681413667635 -16.270720576860043 0 0 0
63 0 5 0 1.5293027837413244 -7.506283178083682 -14.204701517649738 0 0 0
58 0 5 0 -2.4631469981414953 -5.476239671515298 -16.422615733491757 0 0 0
62 0 5 0 1.5229509047074499 -5.5169566429498875 -16.298167687351036 0 0 0
64 0 5 0 -0.463562007654758 -5.517996924496277 -14.27771196483471 0 0 0
68 0 5 0 3.539164554895023 -5.493542361897962 -14.193433697973346 0 0 0
25 0 5 0 11.567450429549869 -11.535160438965468 -16.21551722064767 -1 0 0
28 0 5 0 11.518709649277513 -9.568683536196737 -14.17903826210973 -1 0 0
42 0 5 0 5.445732032766564 -9.541996063335718 -16.272608083576507 0 0 0
43 0 5 0 5.484752839364374 -11.586114618436588 -14.25327833468645 0 0 0
45 0 5 0 7.485358598019996 -11.571037886282797 -16.202403803262136 0 0 0
46 0 5 0 9.52641885178258 -9.571944888901578 -16.263568495709933 0 0 0
47 0 5 0 9.5156059805623 -11.540252926810497 -14.20595603716061 0 0 0
48 0 5 0 7.45050547323047 -9.515794544566832 -14.135133720880983 0 0 0
67 0 5 0 5.45195959444573 -7.548417939050957 -14.17457956077535 0 0 0
49 0 5 0 11.616137907988707 -7.652948034477703 -16.188980453980125 -1 0 0
69 0 5 0 7.558586488564979 -7.556348682196226 -16.10656823006418 0 0 0
71 0 5 0 9.605351838563225 -7.554397652560409 -14.154571165470717 0 0 0
52 0 5 0 11.651095470368737 -5.547267822547762 -14.127542394554812 -1 0 0
66 0 5 0 5.543231800305978 -5.478377029446542 -16.225276448497805 0 0 0
70 0 5 0 9.647872723499779 -5.599896165947471 -16.151881993874653 0 0 0
72 0 5 0 7.574622448895395 -5.624827010797699 -14.22572469888656 0 0 0
74 0 5 0 -10.575011134223363 -1.4943732004927517 -16.1510941393474 0 0 0
75 0 5 0 -10.519469956111383 -3.511599234979331 -14.114989852508792 0 0 0
77 0 5 0 -8.57435044315726 -3.481508127410166 -16.21905507111426 0 0 0
78 0 5 0 -6.625160104405155 -1.4657778155254675 -16.21519721713888 0 0 0
79 0 5 0 -6.554413487737076 -3.43295206310741 -14.251083407093928 0 0 0
80 0 5 0 -8.51045147560765 -1.5172725593917245 -14.183477818529015 0 0 0
81 0 5 0 -4.50873997326742 -3.515401383613327 -16.33620410726674 0 0 0
84 0 5 0 -4.559575200831095 -1.4960395287432147 -14.22309926905127 0 0 0
99 0 5 0 -10.61479327038765 0.532422092712961 -14.088343432982226 0 0 0
101 0 5 0 -8.639933038605587 0.5632146276785412 -16.165961507874705 0 0 0
103 0 5 0 -6.5614997441559595 0.562589931178684 -14.171334279946574 0 0 0
105 0 5 0 -4.55195314167157 0.5584392033406599 -16.218248777384243 0 0 0
98 0 5 0 -10.604979695407652 2.631460235136366 -16.13159131891134 0 0 0
102 0 5 0 -6.5506993474002595 2.5863142492873723 -16.25097030298355 0 0 0
104 0 5 0 -8.560547901329768 2.575667872812639 -14.19891747277973 0 0 0
108 0 5 0 -4.544779785065264 2.543825186687033 -14.17157706876932 0 0 0
82 0 5 0 -2.5432704233446315 -1.4651240010147524 -16.27760068820037 0 0 0
83 0 5 0 -2.454483755184973 -3.498687245173475 -14.245374353501491 0 0 0
85 0 5 0 -0.467150260308626 -3.501353161368339 -16.281542523439754 0 0 0
86 0 5 0 1.6092742614801794 -1.5013931477774805 -16.266308987999363 0 0 0
87 0 5 0 1.542612587378801 -3.4855369193448826 -14.283865936305835 0 0 0
88 0 5 0 -0.5213405440075435 -1.4986984065521902 -14.194486190899001 0 0 0
89 0 5 0 3.5800039799061496 -3.512268380813568 -16.38135055948696 0 0 0
92 0 5 0 3.5833007928524876 -1.4921841649837906 -14.231517997988364 0 0 0
107 0 5 0 -2.4598834993434653 0.5368904276178944 -14.135146297217918 0 0 0
109 0 5 0 -0.43763008561190814 0.48901908853855564 -16.244944407252397 0 0 0
111 0 5 0 1.4695655177722655 0.5307127705716964 -14.23500801527012 0 0 0
106 0 5 0 -2.525393782419517 2.5102413052363843 -16.20828166887809 0 0 0
110 0 5 0 1.502937496836637 2.5545608437183054 -16.32378470207841 0 0 0
112 0 5 0 -0.49780436127058636 2.5431604698909287 -14.278524544600643 0 0 0
116 0 5 0 3.5018251615354954 2.5529965849700185 -14.226095590892728 0 0 0
113 0 5 0 3.5946948958104983 0.5481396494773321 -16.18416018702053 0 0 0
73 0 5 0 11.641424179452098 -3.512853413037744 -16.218863572357762 -1 0 0
76 0 5 0 11.668079216128495 -1.5180320490033754 -14.110670954307244 -1 0 0
90 0 5 0 5.673299629834282 -1.4735323352254928 -16.214893658681493 0 0 0
91 0 5 0 5.567240205865596 -3.478583699206106 -14.18898283397817 0 0 0
93 0 5 0 7.56813150284329 -3.566974681065727 -16.12212571576667 0 0 0
94 0 5 0 9.682370708609593 -1.505253870596528 -16.15049647235365 0 0 0
95 0 5 0 9.567632577594695 -3.5300161305595346 -14.178640814849185 0 0 0
96 0 5 0 7.562286440496216 -1.4176907050233327 -14.189223448604036 0 0 0
115 0 5 0 5.56781326124955 0.5614414585129845 -14.220806654769472 0 0 0
97 0 5 0 11.602437541579778 0.61435752931776 -16.12625997818176 -1 0 0
119 0 5 0 9.651296149820704 0.5034564411396056 -14.09808463797286 0 0 0
117 0 5 0 7.6491751942615345 0.5645995696043771 -16.167505823937063 0 0 0
100 0 5 0 11.704005499374299 2.5978491069717125 -14.110107139683846 -1 0 0
114 0 5 0 5.620704735732244 2.5615475865771384 -16.216059722992725 0 0 0
118 0 5 0 9.600924152479408 2.520138494573977 -16.09844357490166 0 0 0
120 0 5 0 7.578952638184913 2.6061300120602677 -14.104682887234983 0 0 0
2 0 5 0 -10.65810935598093 10.715763553438268 -16.278326786804804 0 -1 0
6 0 5 0 -6.518394385917833 10.57610818484925 -16.313298313197357 0 -1 0
8 0 5 0 -8.573379362407714 10.641511685694049 -14.297080552876348 0 -1 0
12 0 5 0 -4.538848418368475 10.553031343726479 -14.235859476671013 0 -1 0
7 0 5 0 -6.563565523023729 8.573812747209159 -14.206664518881817 0 -1 0
5 0 5 0 -8.579992965168797 8.64277539914845 -16.287059606086263 0 -1 0
9 0 5 0 -4.510433979621743 8.60206614205027 -16.298002285907142 0 -1 0
3 0 5 0 -10.640504262624322 8.741301659469963 -14.199613266296925 0 -1 0
122 0 5 0 -10.606895691639705 6.660718978242185 -16.253555695285613 0 0 0
123 0 5 0 -10.624605009713015 4.7157379250477 -14.211650634259676 0 0 0
125 0 5 0 -8.603120206997703 4.577397305174034 -16.254190906775264 0 0 0
126 0 5 0 -6.609085297828275 6.58146872282486 -16.246093907781244 0 0 0
127 0 5 0 -6.520663395745696 4.5593199614216156 -14.210518283945316 0 0 0
128 0 5 0 -8.602053028674716 6.653325586181141 -14.249161333018062 0 0 0
129 0 5 0 -4.604119445287492 4.603123348420927 -16.300956437168853 0 0 0
132 0 5 0 -4.486876832455888 6.60517233231693 -14.214901590914346 0 0 0
146 0 5 0 -10.574469926356846 10.720368332231091 -12.239021735647261 0 -1 0
10 0 5 0 -2.4327998181074078 10.581616729914717 -16.197930406079802 0 -1 0
14 0 5 0 1.4745296712552443 10.671575938388512 -16.251084703420336 0 -1 0
16 0 5 0 -0.3896497586826628 10.625608948516842 -14.2288112955844 0 -1 0
20 0 5 0 3.508783077713614 10.628467442615179 -14.210394675234813 0 -1 0
11 0 5 0 -2.4805773263752204 8.592320581161655 -14.254515016681331 0 -1 0
13 0 5 0 -0.5403640015320191 8.546518572459597 -16.1653089022755 0 -1 0
15 0 5 0 1.5755626691692068 8.546851690288925 -14.251814971197064 0 -1 0
17 0 5 0 3.5588848521685246 8.616884414532965 -16.30200477629915 0 -1 0
130 0 5 0 -2.5282635035440895 6.54317677215328 -16.336368606189048 0 0 0
131 0 5 0 -2.546872771595799 4.599308699057962 -14.242647361910539 0 0 0
133 0 5 0 -0.5131196727423606 4.5674259747532515 -16.269578834377352 0 0 0
134 0 5 0 1.544262008824841 6.597698923483908 -16.229694504381634 0 0 0
135 0 5 0 1.5581553484195017 4.606087915188716 -14.286275381026384 0 0 0
136 0 5 0 -0.5039254051060335 6.545954744563649 -14.262893311244452 0 0 0
140 0 5 0 3.612890436932075 6.494209873999766 -14.2732679431207 0 0 0
137 0 5 0 3.57407355442832 4.5604094556996095 -16.270027602739837 0 0 0
4 0 5 0 11.603041230014712 10.696567366185336 -14.202172189461757 -1 -1 0
18 0 5 0 5.571821209085667 10.639281110253378 -16.23945216022239 0 -1 0
22 0 5 0 9.492165849564785 10.699508417127419 -16.15229659681226 0 -1 0
24 0 5 0 7.535934552730795 10.648637441657186 -14.147610512760636 0 -1 0
1 0 5 0 11.595675278549695 8.697246211982915 -16.183606421664187 -1 -1 0
21 0 5 0 7.566764224318395 8.597006665954511 -16.23436796320832 0 -1 0
23 0 5 0 9.597099635105991 8.682239895667829 -14.138100849918207 0 -1 0
19 0 5 0 5.541194015240254 8.653749525737615 -14.189833316061952 0 -1 0
121 0 5 0 11.626862741968107 4.633087027311686 -16.184940182075245 -1 0 0
124 0 5 0 11.61551268466514 6.6934877786355695 -14.110510575473736 -1 0 0
138 0 5 0 5.6456761722319815 6.607453659199112 -16.213052003070676 0 0 0
139 0 5 0 5.590015316328786 4.535556115059332 -14.238163694533457 0 0 0
141 0 5 0 7.66984915030989 4.602774427989705 -16.154257901997884 0 0 0
142 0 5 0 9.592122984798518 6.660120233272944 -16.140036676673287 0 0 0
143 0 5 0 9.638147779149147 4.626758780538028 -14.121626158646086 0 0 0
144 0 5 0 7.533101030184211 6.638508551766713 -14.130365506628587 0 0 0
172 0 5 0 -6.447736598162531 -5.518152210018526 -12.320967177938586 0 0 0
160 0 5 0 -6.485009673032913 -9.542772838285213 -12.182372766346896 0 0 0
161 0 5 0 -4.43245402716951 -11.588941498552924 -12.168867879062862 0 0 0
171 0 5 0 -8.455483457500042 -7.576805314924094 -12.274592689897142 0 0 0
159 0 5 0 -8.529998607398396 -11.518717860693423 -12.315185726885112 0 0 0
170 0 5 0 -10.539803669188753 -5.6916638697560265 -12.006747117272155 0 0 0
173 0 5 0 -4.47097289894753 -7.522506575657907 -12.242003228808976 0 0 0
158 0 5 0 -10.581297794740504 -9.523151693486557 -12.209414103681095 0 0 0
526 32 1 -1.1128 -6.071824164677877 -10.018968545587825 -6.582297236014471 0 0 0
1495 355 1 -1.1128 -7.632040257862532 -10.792727841868025 -8.775520233458641 1 0 0
1496 355 2 0.5564 -7.300446171673243 -9.980756513314775 -9.158900571669358 1 0 0
1497 355 2 0.5564 -8.010160200269734 -10.52564217469382 -7.937712036834148 1 0 0
937 169 1 -1.1128 -11.891687904403238 -5.073031893492089 -4.405322468333733 0 0 0
742 104 1 -1.1128 -9.227263595756414 -6.388128884982365 -8.950425276575428 0 0 0
938 169 2 0.5564 -11.752491439069736 -4.345068154318436 -5.011066233807275 0 0 0
527 32 2 0.5564 -6.083164517136231 -10.01766240309859 -7.539429252347079 0 0 0
876 148 2 0.5564 -9.522754172962175 -8.889454557941468 -6.805768802370758 0 0 0
874 148 1 -1.1128 -10.053643536010174 -8.635284061420814 -7.560610321461624 0 0 0
875 148 2 0.5564 -10.373515273027849 -9.4633119358417 -7.918777559085052 0 0 0
1152 240 2 0.5564 -8.694847806821025 -10.4568729864284 -5.278158464576809 1 0 0
1150 240 1 -1.1128 -8.64090307722174 -9.5549165740892 -5.59406437984904 1 0 0
743 104 2 0.5564 -8.28440506917039 -6.442252303133363 -8.794475271302174 0 0 0
744 104 2 0.5564 -9.535063423755181 -7.2914297787278315 -8.87600197332218 0 0 0
515 28 2 0.5564 -11.655111950096055 -7.512390886680489 -6.322600753848527 0 0 0
1151 240 2 0.5564 -7.741647663847917 -9.464429078369868 -5.909316189373217 1 0 0
1127 232 2 0.5564 -6.25501709008059 -5.616663657373292 -5.887542431754552 0 0 0
1126 232 1 -1.1128 -6.984448735993889 -5.565054571374902 -5.26988732759576 0 0 0
1051 207 1 -1.1128 -6.562447456822452 -6.200244646195828 -8.476231253765928 0 0 0
935 168 2 0.5564 -9.180647051488513 -8.038448199930947 -4.483676314331742 1 0 0
863 144 2 0.5564 -4.781795080407016 -8.827529367373709 -9.341862780742835 1 1 0
1128 232 2 0.5564 -6.827169172924607 -4.758105202291404 -4.779654988328142 0 0 0
1062 210 2 0.5564 -10.432849841540058 -4.980652215868863 -9.259750753190986 1 0 0
1053 207 2 0.5564 -6.872782623062772 -5.371647725879032 -8.841404069268217 0 0 0
862 144 1 -1.1128 -5.722068609948652 -8.879537476251954 -9.170361266196322 1 1 0
1052 207 2 0.5564 -5.6587234702234195 -6.023769532638015 -8.214752006119474 0 0 0
1109 226 2 0.5564 -1.329530536769869 -3.6591017929667244 -7.35444164862751 0 0 0
543 37 2 0.5564 -4.735297951944743 -9.240205471008903 -5.214759208062673 0 0 0
652 74 1 -1.1128 -8.972206873678141 11.79692828424479 -5.435165148219566 0 -1 0
528 32 2 0.5564 -5.8370840154292205 -10.916428199881874 -6.34629891423483 0 0 0
864 144 2 0.5564 -5.9943136546415605 -7.970098437948873 -9.047743362941238 1 1 0
1862 477 2 0.5564 -8.578491430911289 -5.422373180624707 -6.182872508907624 1 0 0
997 189 1 -1.1128 9.472562668295778 -3.4864855006253133 -5.089563931344389 0 0 0
998 189 2 0.5564 9.942394961793601 -2.70769405026767 -4.791279689349607 0 0 0
1061 210 2 0.5564 -11.91874581529778 -4.908189921711564 -9.540388654342864 1 0 0
1060 210 1 -1.1128 -11.139538420820998 -4.3611273033272875 -9.44144306680094 1 0 0
1196 255 2 0.5564 11.28198944517693 11.62496196735097 -10.306389057149756 0 0 0
1717 429 1 -1.1128 -10.80988624505332 -10.937063671199583 -9.325109883723579 1 1 0
934 168 1 -1.1128 -8.861918667477235 -7.4597744045433405 -3.7910137410265787 1 0 0
1449 339 2 0.5564 10.209590890272658 -8.497305831314543 -2.6816785385735327 -1 0 0
936 168 2 0.5564 -8.164719920891566 -6.951166696863142 -4.205096750128285 1 0 0
541 37 1 -1.1128 -4.046206663171145 -9.398805280643037 -4.5695986417919965 0 0 0
1108 226 1 -1.1128 -1.2721754613303609 -4.155811016863404 -6.5382170335175696 0 0 0
175 0 5 0 -0.5295321236264988 -7.496409527766686 -12.23684404503852 0 0 0
162 0 5 0 -2.460764332319391 -9.519921290149178 -12.270355319838323 0 0 0
174 0 5 0 -2.5293422123350644 -5.462965302265089 -12.308378379991721 0 0 0
164 0 5 0 1.5561373918230876 -9.453655510186257 -12.159945624066706 0 0 0
176 0 5 0 1.5488348611299672 -5.571384471214527 -12.142738757220638 0 0 0
177 0 5 0 3.468251350455091 -7.50941226425238 -12.084144150005368 0 0 0
163 0 5 0 -0.4302947580100287 -11.558774341887963 -12.112415019298272 0 0 0
165 0 5 0 3.4070322147156857 -11.56915832673252 -12.140947078426017 0 0 0
583 51 1 -1.1128 -1.447171447920861 -5.978410503163373 -9.392390035035788 0 0 0
585 51 2 0.5564 -0.5786370929924786 -5.59119096537638 -9.283115214439542 0 0 0
584 51 2 0.5564 -2.0094881729982057 -5.2423063592907075 -9.63360050314063 0 0 0
557 42 2 0.5564 1.535339521899429 -4.616492078688771 -9.218688674755231 0 0 0
962 177 2 0.5564 -2.4957734976816397 -7.558982489442505 -9.340392654542558 0 0 0
1627 399 1 -1.1128 -0.5824157642324479 -8.017294731453372 -7.3354851500662495 0 0 0
1628 399 2 0.5564 -1.2548055979568653 -7.516670338309802 -7.797545257115638 0 0 0
963 177 2 0.5564 -2.6731077283724214 -9.040976889737612 -9.59365313031762 0 0 0
961 177 1 -1.1128 -3.156608471170214 -8.251385719362448 -9.350744108037393 0 0 0
1494 354 2 0.5564 0.3380928526185415 -6.890436431416121 -6.466144421440121 0 0 0
1492 354 1 -1.1128 0.8300119962576717 -6.235314148653066 -5.971106768948022 0 0 0
1493 354 2 0.5564 0.5500711169167438 -6.359723979553957 -5.064251120580999 0 0 0
1110 226 2 0.5564 -0.49613033845425697 -4.705702837006323 -6.645946159067463 0 0 0
2398 0 4 -1 3.2347863096654734 -5.9895498468265265 -9.014453104046918 0 0 0
804 124 2 0.5564 -1.2344886199212637 -9.476268320839711 -6.463859224080625 -1 1 0
802 124 1 -1.1128 -1.8361038257812112 -10.084890730586242 -6.03505867558751 -1 1 0
1926 498 2 0.5564 0.8542678996501462 -7.804722317161614 -10.613629455636268 0 0 0
803 124 2 0.5564 -1.3873374641235283 -10.337443131205397 -5.228177060849432 -1 1 0
1629 399 2 0.5564 -0.03303725125399634 -8.379752947157073 -8.030496111075772 0 0 0
1413 327 2 0.5564 1.7091674119651379 -9.946387545360027 -9.871484361961024 0 0 0
1924 498 1 -1.1128 1.0928520531275123 -8.06466355667221 -9.723831718872272 0 0 0
1925 498 2 0.5564 1.6877123575246376 -7.377155750046587 -9.424321922870785 0 0 0
1411 327 1 -1.1128 1.6275249598439465 -10.851862471694513 -9.572014642348714 0 0 0
523 31 1 -1.1128 -1.0315222600396432 -10.989408237773013 -8.802744428158057 0 0 0
524 31 2 0.5564 -0.9607956429277356 -10.769246136999392 -7.873896435066043 0 0 0
525 31 2 0.5564 -0.14208865715851998 -11.231900808384149 -9.060305150615344 0 0 0
1983 517 2 0.5564 3.0805984825098944 -10.222818748258385 -5.149077735967416 0 0 0
1981 517 1 -1.1128 2.752964351970453 -10.830078283590113 -5.81249714786185 0 0 0
1412 327 2 0.5564 1.7319812021326886 -11.377323423395705 -10.365243282032338 0 0 0
1114 228 1 -1.1128 0.368845325362972 -10.660717865045406 -4.224507843635801 0 1 0
1116 228 2 0.5564 1.0248302117801549 -10.868619720340934 -4.889859902400073 0 1 0
1982 517 2 0.5564 3.3593862913527146 -11.570003609287136 -5.780953614443025 0 0 0
484 18 1 -1.1128 3.448085888777343 -8.900576570407027 -4.066133136458466 0 0 0
833 134 2 0.5564 3.1644939517240878 -9.322239523085052 -7.7997700313100005 0 1 0
860 143 2 0.5564 -2.877736849151795 -11.922308669913855 -6.282259647531628 1 1 0
458 9 2 0.5564 -1.731081905738496 11.146346059391469 -9.296073723210728 0 -1 0
542 37 2 0.5564 -3.246437512773528 -9.48368618377461 -5.0886340288944565 0 0 0
157 0 5 0 11.58070000483549 -11.553966063772855 -12.252194374563743 -1 0 0
511 27 1 -1.1128 10.61057858122922 -9.84192756588686 -8.756054306400932 -1 0 0
514 28 1 -1.1128 11.71063938850344 -7.195155581917993 -6.096143435779025 -1 0 0
516 28 2 0.5564 11.863054681486773 -6.343870459697208 -5.685881132501273 -1 0 0
2386 0 3 1 3.050795630462664 -5.443726759582372 -6.361640232510936 0 0 0
513 27 2 0.5564 10.784436540178664 -8.919756223798839 -8.944748240892276 -1 0 0
512 27 2 0.5564 9.69190403395011 -9.966569830472702 -8.994242655098915 -1 0 0
485 18 2 0.5564 3.626860901350935 -7.9732022695781914 -4.2218518416191495 0 0 0
180 0 5 0 9.512848506605899 -5.566328392137956 -12.167229069674786 0 0 0
167 0 5 0 7.473081762274619 -11.550613359599376 -12.135413381797129 0 0 0
179 0 5 0 7.483185087978174 -7.53387058620252 -12.091123379126616 0 0 0
178 0 5 0 5.543817196743331 -5.471002727317142 -12.233315256924726 0 0 0
168 0 5 0 9.479571598587096 -9.592777791369272 -12.111255664245029 0 0 0
169 0 5 0 11.634990356970077 -7.556998584859898 -12.168452872055312 -1 0 0
166 0 5 0 5.487790625158947 -9.61295461548742 -12.136793829041897 0 0 0
2378 0 3 1 9.951651273951027 -8.811791751138276 -5.238069639505151 -1 1 0
2392 0 4 -1 4.138007573689505 -5.958467688592762 -4.208701876069438 0 0 0
1420 330 1 -1.1128 11.0840171021236 -6.343230690341149 -9.20323179162274 0 0 0
1422 330 2 0.5564 10.156533685345934 -6.184626481035285 -9.378876601628194 0 0 0
1421 330 2 0.5564 11.152520693219222 -6.333721812752853 -8.248533306019599 0 0 0
834 134 2 0.5564 3.751453940253176 -7.940589610105516 -7.995773083067961 0 1 0
1241 270 2 0.5564 4.911460260890742 -7.091508564844994 -9.769973424028953 -1 0 0
1240 270 1 -1.1128 5.705478996955342 -7.51886733939111 -10.091114851326596 -1 0 0
1242 270 2 0.5564 6.055725859226179 -6.914119744939139 -10.745209323675676 -1 0 0
985 185 1 -1.1128 6.280546156602677 -6.714291908179774 -6.5687796038227955 0 0 0
832 134 1 -1.1128 3.956971189421222 -8.807747200772798 -7.646441111000072 0 1 0
986 185 2 0.5564 5.819972921775849 -7.451228073083706 -6.9700645397040555 0 0 0
907 159 1 -1.1128 7.002361736803254 -4.03065802306955 -7.888491663553704 0 0 0
908 159 2 0.5564 6.329102733510782 -4.039276950411582 -8.568844455424356 0 0 0
909 159 2 0.5564 6.9106644256727465 -4.87624576331754 -7.4493961835141995 0 0 0
636 68 2 0.5564 6.8902012016082415 -10.30998706754312 -9.130206644312691 0 0 0
987 185 2 0.5564 5.819404332509959 -6.563699071355257 -5.743611163011288 0 0 0
635 68 2 0.5564 7.125453669024863 -8.882911642990727 -9.577428770143495 0 0 0
634 68 1 -1.1128 7.577611901184907 -9.651232956103662 -9.228906159335477 0 0 0
1236 268 2 0.5564 10.063798958858845 -11.399179311252544 -6.162789562555223 -1 1 0
1234 268 1 -1.1128 10.75476292863372 -10.740218287290753 -6.095172691098188 -1 1 0
890 153 2 0.5564 6.082243568990271 -11.194172914693393 -6.742422036122502 0 0 0
889 153 1 -1.1128 6.270388658505228 -10.268673948497378 -6.586585231648944 0 0 0
891 153 2 0.5564 5.519262348476744 -9.805359025627542 -6.957234891759913 0 0 0
1233 267 2 0.5564 8.048223171208912 -7.874813256695106 -6.427398693560799 -1 1 0
1231 267 1 -1.1128 8.747899337909056 -8.027438718928414 -7.062529539812538 -1 1 0
1232 267 2 0.5564 8.293743779772766 -8.307540944667016 -7.857210472864449 -1 1 0
1235 268 2 0.5564 10.972726812763053 -10.527060110852414 -7.002525176287582 -1 1 0
486 18 2 0.5564 4.27586133532882 -9.252972889257583 -3.7392744842877375 0 0 0
999 189 2 0.5564 9.250842130653188 -3.2983955914540926 -6.001536548578304 0 0 0
1430 333 2 0.5564 7.332016141789486 -9.866349014099523 -5.310085959259861 0 0 0
956 175 2 0.5564 8.529031185490442 -11.58530022849049 -4.5083115749691896 0 0 0
1434 334 2 0.5564 8.27658406317626 -4.9544493480648395 -4.03042286364977 0 0 0
1432 334 1 -1.1128 7.994666600629027 -5.856242011182811 -4.1838006479415 0 0 0
1429 333 1 -1.1128 7.880201315581472 -9.550096420378114 -4.591956962626724 0 0 0
1431 333 2 0.5564 7.261788872624219 -9.342332882815816 -3.89150551539161 0 0 0
553 41 1 -1.1128 6.42300730240158 11.641066899482936 -9.457052049764812 0 -1 0
1863 477 2 0.5564 -9.319868589302425 -6.076412404919043 -7.329384837941919 1 0 0
1861 477 1 -1.1128 -9.458382980481431 -5.648156566045248 -6.484610131755348 1 0 0
533 34 2 0.5564 -3.5368891088832406 -3.331465947079104 -10.020147890011998 0 0 0
641 70 2 0.5564 -7.950002347415439 -0.951750995554281 -5.146885001471021 1 0 0
183 0 5 0 -8.503251653245322 -3.6164941110214373 -12.164824370002439 0 0 0
182 0 5 0 -10.532891736406661 -1.5028465053746833 -12.14353201053344 0 0 0
185 0 5 0 -4.549174152950842 -3.454053043759816 -12.247613763453211 0 0 0
194 0 5 0 -10.584129454576342 2.6360286018509775 -12.196094136564009 0 0 0
195 0 5 0 -8.566352194049419 0.5073882264387437 -12.202684232380347 0 0 0
184 0 5 0 -6.605419333808949 -1.5468988701551725 -12.077688651564573 0 0 0
196 0 5 0 -6.630106882184975 2.5543660180137198 -12.173378840732981 0 0 0
1070 213 2 0.5564 -8.818905488646513 -1.480112663793682 -7.89099191417771 1 0 0
197 0 5 0 -4.571326097500213 0.4970035800229453 -12.21260341601505 0 0 0
1059 209 2 0.5564 -7.778690199240624 -3.399587512214532 -10.001423826947676 0 0 0
643 71 1 -1.1128 -9.220959547279916 -2.0977569263703133 -9.678675394840175 1 0 0
645 71 2 0.5564 -9.752387573820133 -2.863565234954636 -9.896286040136056 1 0 0
644 71 2 0.5564 -9.788277980525503 -1.3503575435850914 -9.86782376809521 1 0 0
642 70 2 0.5564 -7.136446851784815 0.055278254796489845 -4.362082637308898 1 0 0
1069 213 1 -1.1128 -8.456515260228763 -1.0904111145604367 -7.095354367340388 1 0 0
737 102 2 0.5564 -11.725215720254006 -3.1083258250458834 -7.610309034110048 0 0 0
738 102 2 0.5564 -10.486765931190776 -3.739265400287009 -7.010264935878808 0 0 0
736 102 1 -1.1128 -11.224594942855305 -3.1681171250258138 -6.796653001560166 0 0 0
1071 213 2 0.5564 -9.214041182065133 -0.7180472586964647 -6.643987525358568 1 0 0
592 54 1 -1.1128 -6.508257592951301 0.29218560941251054 -9.619385700306578 0 0 0
593 54 2 0.5564 -5.993454019745476 1.010944784177041 -9.252514506861075 0 0 0
751 107 1 -1.1128 -4.789257088936884 2.0719418239635505 -8.498683174574875 0 0 0
752 107 2 0.5564 -5.0136859949836206 3.0022443814172304 -8.478664421430945 0 0 0
569 46 2 0.5564 -10.161730895912418 0.7165857665431509 -9.400557450412391 1 0 0
739 103 1 -1.1128 -8.723203333805357 1.9654603133057007 -9.743244213077713 0 0 0
1057 209 1 -1.1128 -6.998426147242128 -3.8472704921416736 -9.67431489353031 0 0 0
1058 209 2 0.5564 -6.466753314885287 -3.1513982076349207 -9.287898085441872 0 0 0
741 103 2 0.5564 -7.926400276320095 1.4678137728830423 -9.559706232473445 0 0 0
1099 223 1 -1.1128 -4.990978426801001 3.4421271221252816 -4.704642044294398 0 0 0
640 70 1 -1.1128 -7.353702004106976 -0.8760879652039292 -4.401946795173144 1 0 0
1573 381 1 -1.1128 -5.847275083225946 -1.8362738111497579 -7.750875000746229 1 0 0
1575 381 2 0.5564 -5.922695229501618 -1.2642269102998593 -8.514619733237394 1 0 0
1574 381 2 0.5564 -6.706889942636754 -1.7921112386837033 -7.332134219337044 1 0 0
568 46 1 -1.1128 -10.860855456959772 0.06923949469708257 -9.308906146141997 1 0 0
1100 223 2 0.5564 -5.7575112042053815 3.0898010614054754 -4.252396568152172 0 0 0
1101 223 2 0.5564 -4.541549138115034 3.966785561065397 -4.042087065722715 0 0 0
1154 241 2 0.5564 -4.545758444590562 -3.986897176559272 -7.339940917738934 0 0 0
570 46 2 0.5564 -11.388100649904688 0.3875421970483762 -8.576151685483195 1 0 0
627 65 2 0.5564 11.885992220965235 -2.921604618159015 -9.584275185344444 0 0 0
977 182 2 0.5564 -9.750602808448367 1.4063072648088764 -6.372619399222639 1 0 0
976 182 1 -1.1128 -10.18533165571635 0.8362843771100111 -5.738335034458637 1 0 0
1142 237 2 0.5564 -6.704370794396799 -2.4449251193837966 -4.338303446048347 1 0 0
1153 241 1 -1.1128 -4.364564765700638 -4.900161381858605 -7.1177937141806105 0 0 0
594 54 2 0.5564 -6.152159270603935 0.16648076229697312 -10.498944809251418 0 0 0
625 65 1 -1.1128 11.446770263307359 -2.266788028413084 -9.041566838546652 0 0 0
978 182 2 0.5564 -11.025817267071403 0.6231373493104384 -6.143778247359762 1 0 0
447 5 2 0.5564 11.604237268832291 2.036474733724381 -7.527393532666997 -1 -1 0
1456 342 1 -1.1128 -9.393783543854376 2.7830179694503503 -7.319435840610237 0 0 0
1457 342 2 0.5564 -9.371239570579549 2.4203439957244934 -8.204981589526026 0 0 0
740 103 2 0.5564 -8.447335948441387 2.6398129576659257 -10.364032361131251 0 0 0
1143 237 2 0.5564 -5.406367419423439 -3.126928443186059 -3.961535579574882 1 0 0
1141 237 1 -1.1128 -6.341758117217851 -3.2921960872069187 -4.07969966290669 1 0 0
1179 249 2 0.5564 -5.614549309792678 0.5847724738150079 -6.0605922227898885 0 0 0
1178 249 2 0.5564 -5.149960908720597 -0.7812444176853381 -6.518905758948567 0 0 0
649 73 1 -1.1128 -7.346708818517853 1.7501148219450438 -3.965941926882814 0 0 0
651 73 2 0.5564 -7.893968259789756 2.4338692661496166 -4.352230599302681 0 0 0
869 146 2 0.5564 -10.841776594149671 2.416975506873309 -4.748233066340276 0 -1 0
532 34 1 -1.1128 -2.716059313908992 -3.2574765231005176 -9.533325000879037 0 0 0
534 34 2 0.5564 -2.6220198656580025 -2.3203585574511223 -9.362446188098511 0 0 0
556 42 1 -1.1128 0.7087306011968684 -4.2192322224567524 -8.944580694675503 0 0 0
558 42 2 0.5564 0.7469806919483508 -3.3258117689736006 -9.286002315040509 0 0 0
753 107 2 0.5564 -4.0635754241849975 2.01345422024978 -9.120130826501638 0 0 0
1097 222 2 0.5564 -3.0422116028073893 2.1965539571758916 -7.153928341879985 0 0 0
186 0 5 0 -2.482911178380916 -1.4645072608071736 -12.177750923747476 0 0 0
201 0 5 0 3.5114777854921333 0.6056524034039641 -12.211145937502089 0 0 0
508 26 1 -1.1128 4.140089252834118 -3.39270747158606 -7.0100182572755205 -1 0 0
509 26 2 0.5564 4.592919549190015 -3.2389609840827975 -7.8391978019438895 -1 0 0
189 0 5 0 3.494593268350407 -3.457387980208968 -12.230897218459694 0 0 0
199 0 5 0 -0.3970555689468315 0.5424966448299605 -12.11379667311246 0 0 0
200 0 5 0 1.4447945323178997 2.628353352319513 -12.27355727028262 0 0 0
198 0 5 0 -2.4938175828430906 2.512364717219011 -12.171917224459094 0 0 0
188 0 5 0 1.5221325910605572 -1.4278313609355464 -12.222182244891963 0 0 0
187 0 5 0 -0.4661543932322557 -3.5992756316023984 -12.146162894814207 0 0 0
1096 222 1 -1.1128 -2.5194723924297557 2.4606140683557927 -6.396796525211125 0 0 0
821 130 2 0.5564 -2.6370395667098174 -0.5834783145555109 -8.641122862252995 0 0 0
820 130 1 -1.1128 -3.0481215786826543 -0.5258870998437141 -9.50363517909759 0 0 0
822 130 2 0.5564 -2.662781931442216 0.25478690226062917 -9.901497453508298 0 0 0
1467 345 2 0.5564 -0.5851285211103693 2.5499390032859557 -5.527166206506893 0 0 0
510 26 2 0.5564 3.504099069746326 -2.680021134596371 -6.948158286199779 -1 0 0
595 55 1 -1.1128 0.35863282891972026 -1.346652044523806 -8.439715040900078 0 0 0
596 55 2 0.5564 0.1486895060777378 -0.7938684507509763 -9.192434148580356 0 0 0
597 55 2 0.5564 -0.11762164021464322 -0.9498986892489695 -7.710331422675371 0 0 0
573 47 2 0.5564 3.3076805085543093 -0.40667464683033056 -9.919297088115984 0 0 0
1536 368 2 0.5564 3.8889674871243964 1.0764887077357386 -6.1384185987160125 0 0 0
676 82 1 -1.1128 3.2415904559335393 2.0807301545441157 -9.344104594087161 0 0 0