LAMMPS data file via write_data, version 29 Aug 2024, timestep = 30000, units = real

1680 atoms
5 atom types
812 bonds
1 bond types
406 angles
1 angle types

-12.120000000000001 12.120000000000001 xlo xhi
-12.120000000000001 12.120000000000001 ylo yhi
-20.2 20.2 zlo zhi

Atom Type Labels

1 O
2 H
3 Na+
4 Cl-
5 WALL

Bond Type Labels

1 O-H

Angle Type Labels

1 H-O-H

Masses

1 15.9994
2 1.008
3 22.99
4 35.453
5 26.9815

Atoms # full

26 0 5 0 -11.271752669213784 -10.108037098192318 -16.26075729167489 0 0 0
30 0 5 0 -7.204922781894491 -10.14977119407853 -16.18421355565387 0 0 0
32 0 5 0 -9.176876750506386 -10.136556216756249 -14.166043067944411 0 0 0
51 0 5 0 -11.197220605471038 -8.116828356991507 -14.167829783761462 0 0 0
53 0 5 0 -9.164102792877138 -8.087044217384213 -16.15381427290593 0 0 0
55 0 5 0 -7.132543099614187 -8.111279034123692 -14.160472792369257 0 0 0
50 0 5 0 -11.24519868655101 -6.072297306342158 -16.256127571535252 0 0 0
54 0 5 0 -7.19700690936978 -6.01780026205644 -16.181209831234625 0 0 0
56 0 5 0 -9.193428770391854 -6.0555787960884615 -14.148128450222078 0 0 0
57 0 5 0 -5.154556707516851 -7.96924353867075 -16.25472848671789 0 0 0
36 0 5 0 -5.04066074373946 -9.992867309593578 -14.253490588218328 0 0 0
60 0 5 0 -5.133725641342086 -6.039250626160673 -14.173786838019884 0 0 0
81 0 5 0 -5.228002405619703 -4.10028479284624 -16.169765314865 0 0 0
75 0 5 0 -11.253762242141999 -4.104107472089268 -14.054512505587747 0 0 0
77 0 5 0 -9.290011327818231 -4.074069747426351 -16.093506536556948 0 0 0
171 0 5 0 -9.171851705205315 -8.072611004966774 -12.189013061396746 0 0 0
173 0 5 0 -5.100698189238444 -8.093932875555522 -12.157500674361762 0 0 0
33 0 5 0 -5.018663545662932 -11.997045021786516 -16.167011499495466 0 0 0
161 0 5 0 -5.043644632293471 -12.056662312232735 -12.30181853401778 0 0 0
158 0 5 0 -11.125689188915947 -10.23270315836571 -12.129543205897964 0 0 0
172 0 5 0 -7.1238192947780545 -6.031583104624352 -12.159429854304344 0 0 0
34 0 5 0 -2.97546231558853 -9.994295874036226 -16.180142925085157 0 0 0
38 0 5 0 1.0131282141534754 -9.976156622342645 -16.13047264523315 0 0 0
40 0 5 0 -1.0365567076106903 -10.04654737259768 -14.155107107285904 0 0 0
59 0 5 0 -3.046109364956158 -8.025449617265124 -14.195546993224754 0 0 0
61 0 5 0 -1.0417107772815937 -7.978288662977417 -16.08863974984549 0 0 0
63 0 5 0 0.9927535543424456 -7.986943891365163 -14.122346020289603 0 0 0
58 0 5 0 -3.0991965249467546 -5.968155484421273 -16.198630498242352 0 0 0
62 0 5 0 1.0151565747228182 -6.023202193803987 -16.08677190874971 0 0 0
64 0 5 0 -1.0883769407298036 -5.965992447530474 -14.140887143883587 0 0 0
68 0 5 0 3.0348442718189648 -6.077191251701509 -13.997669518663173 0 0 0
44 0 5 0 3.02201181719071 -10.064091718377815 -14.108375854990985 0 0 0
65 0 5 0 3.0385163539761697 -7.987901345247784 -16.05954437885828 0 0 0
83 0 5 0 -3.1327844083164087 -4.064866365286486 -14.131305224251664 0 0 0
162 0 5 0 -3.0938257224816637 -9.996465685612803 -12.15254713665785 0 0 0
35 0 5 0 -2.9812490586536695 -12.039067504551634 -14.182639689392012 0 0 0
37 0 5 0 -1.0078287221661235 -11.993445596463783 -16.205292773521865 0 0 0
39 0 5 0 0.9080815322359783 -12.020301744108783 -14.078115925771627 0 0 0
41 0 5 0 2.8914713835336006 -12.091210450562393 -16.13287910846543 0 0 0
165 0 5 0 2.987711806213712 -12.09379930908366 -12.158451449605707 0 0 0
49 0 5 0 10.951531112749471 -8.141273985889995 -16.129488516127946 -1 0 0
52 0 5 0 11.099000224630961 -6.094334874927919 -14.103806500659317 -1 0 0
28 0 5 0 11.058560635378715 -10.18192315401521 -14.11961554567805 -1 0 0
42 0 5 0 5.01240286165155 -10.099081618318591 -16.195373575802996 0 0 0
46 0 5 0 8.927780870567757 -10.179655617555479 -16.06077557120204 0 0 0
48 0 5 0 6.942022561508254 -10.172661207281102 -14.104070814678925 0 0 0
67 0 5 0 5.027689398365806 -8.092170590150428 -14.016718599790769 0 0 0
69 0 5 0 6.991495124473218 -8.064498845614645 -16.05292054844519 0 0 0
71 0 5 0 9.022221613644515 -8.105433738942656 -14.111161756573143 0 0 0
66 0 5 0 5.000101602888186 -6.042960983903949 -16.103003775622337 0 0 0
70 0 5 0 9.131948998446177 -6.122275654821155 -16.068324870739552 0 0 0
72 0 5 0 7.09302749891934 -6.083716339713139 -14.059328487480288 0 0 0
73 0 5 0 11.003678694597596 -4.05536677042346 -16.026963135433768 -1 0 0
91 0 5 0 5.089668339994693 -4.083357906984897 -14.066697318526625 0 0 0
93 0 5 0 7.112878047271193 -4.071267972010985 -16.057515222910553 0 0 0
95 0 5 0 9.049244555276381 -4.050576320194534 -14.029521612436477 0 0 0
43 0 5 0 4.934577216030516 -12.102897313564183 -14.110461858905047 0 0 0
168 0 5 0 9.022567349904051 -10.153247129371419 -12.148281895478426 0 0 0
79 0 5 0 -7.260801372771837 -3.9692789713950587 -14.105153201348253 0 0 0
74 0 5 0 -11.145224986391923 -1.9939687367151133 -16.20858737225159 0 0 0
78 0 5 0 -7.269889731841215 -2.0083095154369204 -16.15457229412369 0 0 0
80 0 5 0 -9.292415543296041 -2.0137110101588824 -14.100869659942369 0 0 0
99 0 5 0 -11.1404167631842 0.0998928730631503 -14.15328977774482 0 0 0
101 0 5 0 -9.17301747010357 0.04613617336201183 -16.194953458022393 0 0 0
103 0 5 0 -7.179148891598549 -0.05545405281937437 -14.15086462884481 0 0 0
98 0 5 0 -11.212320387367184 2.078796040203018 -16.08716840478545 0 0 0
102 0 5 0 -7.182134565935825 2.0021703535373474 -16.124371711219524 0 0 0
104 0 5 0 -9.098884061454825 2.0797359591746463 -14.07343491649648 0 0 0
84 0 5 0 -5.156380396480297 -2.088030529774793 -14.100281693045762 0 0 0
105 0 5 0 -5.198449105630041 -0.09352840415655832 -16.236795015616675 0 0 0
108 0 5 0 -5.150956133940994 1.9419287409426869 -14.13562265263207 0 0 0
125 0 5 0 -9.188366512486487 4.009575604481977 -16.076974372775442 0 0 0
197 0 5 0 -5.101716231040795 -0.06653305404706227 -12.145051432481248 0 0 0
85 0 5 0 -1.010098440365828 -3.999238594487062 -16.187424904356803 0 0 0
87 0 5 0 0.9811010184368792 -4.0262863923784025 -14.104751841308445 0 0 0
89 0 5 0 2.980471054386403 -4.010771691452249 -16.060500231999285 0 0 0
82 0 5 0 -3.1687040246471407 -2.060572412114819 -16.108433679088986 0 0 0
86 0 5 0 0.9684400809723024 -1.9652419429613444 -16.12847889077219 0 0 0
88 0 5 0 -1.1347490898932007 -2.066879074075177 -14.094270606499606 0 0 0
107 0 5 0 -3.078511055614176 -0.02095107964563242 -14.149697654229165 0 0 0
109 0 5 0 -1.0818258131586422 0.00807085079730382 -16.152320409089146 0 0 0
111 0 5 0 0.9736881024752931 0.0038731462237256687 -14.160894784206313 0 0 0
106 0 5 0 -3.1923573238790683 1.9658461041672566 -16.238186011901057 0 0 0
110 0 5 0 0.9934007093417471 1.9860788088711938 -16.117439509119674 0 0 0
112 0 5 0 -1.0681738223152402 2.050591821751169 -14.164178753444482 0 0 0
92 0 5 0 3.0718522784081093 -1.9992997404146755 -14.11360727887489 0 0 0
113 0 5 0 3.055220398040281 -0.006410002341275373 -16.174833346439556 0 0 0
116 0 5 0 2.9687267689073713 1.9882036443935862 -14.146976887904254 0 0 0
131 0 5 0 -3.10943444975421 3.97603439920216 -14.192829042492091 0 0 0
133 0 5 0 -1.093821115148621 3.957771539735245 -16.215307816920394 0 0 0
213 0 5 0 2.974216396818619 4.010716893033831 -12.14443858880326 0 0 0
188 0 5 0 0.9326152082077614 -2.032163698121882 -12.195219888586767 0 0 0
186 0 5 0 -3.1758719527033117 -2.0435627604137063 -12.127836345402324 0 0 0
200 0 5 0 0.9394180485753035 2.011721016751207 -12.13983615806268 0 0 0
199 0 5 0 -1.019310389454963 -0.03745368389449912 -12.170446236313323 0 0 0
198 0 5 0 -3.006228711155974 1.9505188052434677 -12.176877132255775 0 0 0
201 0 5 0 2.9976567628828006 -0.02258925316852658 -12.16029336792925 0 0 0
211 0 5 0 -1.087671992144503 3.994103738803045 -12.186957486141543 0 0 0
76 0 5 0 11.126452195512899 -1.991034070474166 -14.069534464451497 -1 0 0
97 0 5 0 11.079181845118702 0.055257943986858224 -16.087771964322442 -1 0 0
100 0 5 0 11.101531086593049 2.09862868709993 -14.10675132176276 -1 0 0
90 0 5 0 5.062804611318311 -2.08073389105804 -16.073981883951355 0 0 0
94 0 5 0 8.997223175883173 -1.9718296426914386 -16.0224966605874 0 0 0
96 0 5 0 7.050565559347681 -2.052044236906618 -14.082737576231402 0 0 0
115 0 5 0 5.068495912539179 0.02841902949286098 -14.220013958131057 0 0 0
117 0 5 0 7.04806905957175 0.010912250516822198 -16.190385567274035 0 0 0
119 0 5 0 9.038736788025426 0.05750325410679186 -14.10863752941549 0 0 0
114 0 5 0 5.088537632585102 2.0858695426200455 -16.312415607497297 0 0 0
118 0 5 0 9.063981519221809 2.0989956967047583 -16.34767855685867 0 0 0
120 0 5 0 7.04405782327305 2.040159976484866 -14.222439643982518 0 0 0
139 0 5 0 5.0042898042085815 4.011563513503129 -14.239640553567893 0 0 0
204 0 5 0 9.078585721367315 2.1913338815829966 -12.194483833216458 0 0 0
203 0 5 0 7.113304521839108 0.034747796556065746 -12.154426881222827 0 0 0
202 0 5 0 5.019708180611694 2.0363124706459317 -12.153031055661478 0 0 0
123 0 5 0 -11.149694290907473 4.069236275582796 -14.152275440834753 0 0 0
127 0 5 0 -7.0852996477610075 4.044884015562977 -14.136857876214442 0 0 0
129 0 5 0 -5.114725666877148 4.045570564688912 -16.121418488255834 0 0 0
31 0 5 0 -7.125530592766118 12.11526028071391 -14.172953323250505 0 -1 0
27 0 5 0 -11.203630312896616 12.069543404734516 -14.093085526024696 0 -1 0
29 0 5 0 -9.143775775347013 12.058014246184927 -16.122274685883017 0 -1 0
2 0 5 0 -11.23430306498995 10.059444766132211 -16.037448879440994 0 -1 0
6 0 5 0 -7.107352952553872 9.997114430447432 -16.17701610425892 0 -1 0
8 0 5 0 -9.12647429363143 10.054408755822045 -14.147881872879058 0 -1 0
3 0 5 0 -11.128044705290154 8.131395727508338 -14.039891284642117 0 -1 0
5 0 5 0 -9.174318546113733 8.062077299551198 -16.15429039744366 0 -1 0
7 0 5 0 -7.057968085918496 8.048723820317937 -14.104232797309017 0 -1 0
122 0 5 0 -11.148618121820919 6.115816225979332 -16.070713412126633 0 0 0
126 0 5 0 -7.199963640984801 6.02447976029233 -16.158203361165924 0 0 0
128 0 5 0 -9.139190591324123 6.157274779739503 -14.075265799656608 0 0 0
12 0 5 0 -5.043037252260833 10.100314825112285 -14.20616429557826 0 -1 0
9 0 5 0 -5.095262114790655 7.933892196980635 -16.070616473595035 0 -1 0
132 0 5 0 -5.034144989759976 5.981574908183328 -14.085691870150166 0 0 0
207 0 5 0 -9.163464832571627 4.113519066565865 -12.236443325649766 0 0 0
149 0 5 0 -5.106450288371176 8.077479171554415 -12.139537580943538 0 -1 0
148 0 5 0 -7.0046294915612295 10.147850791143108 -12.156137110773374 0 -1 0
208 0 5 0 -7.044245924099937 6.06025423682998 -12.125981079247039 0 0 0
135 0 5 0 0.978080550493025 4.06327209117154 -14.187137586263677 0 0 0
137 0 5 0 2.913235655833166 4.088712119505767 -16.213210298393726 0 0 0
10 0 5 0 -3.03654718503297 10.10754531766569 -16.14750381887426 0 -1 0
14 0 5 0 0.9003747676555444 10.09261672642357 -16.156808873804586 0 -1 0
16 0 5 0 -1.0487188679693948 10.110285356112565 -14.15540347813614 0 -1 0
11 0 5 0 -3.1025805801362636 8.074805908224254 -14.130999100291675 0 -1 0
13 0 5 0 -1.091761166486694 8.116016999332542 -16.22879671342833 0 -1 0
15 0 5 0 0.923315391771651 8.082843924052169 -14.08297484969272 0 -1 0
130 0 5 0 -2.995553606990671 6.074756854118955 -16.08848152297024 0 0 0
134 0 5 0 0.862888757239183 6.106225361398372 -16.133560566600497 0 0 0
136 0 5 0 -1.0689690388599475 5.994783985465289 -14.117301971227144 0 0 0
17 0 5 0 2.9396177252501716 8.154813736737085 -16.099828898152385 0 -1 0
140 0 5 0 2.933906477781383 6.069973355251878 -14.153864723163428 0 0 0
20 0 5 0 2.875771863379685 10.067596629106722 -14.075067269489072 0 -1 0
212 0 5 0 0.9053691733315842 6.005669656973521 -12.120582090302257 0 0 0
150 0 5 0 -3.074495057701322 10.163947609717411 -12.138277286388023 0 -1 0
121 0 5 0 11.106903912150447 4.176975340709373 -16.11861836122096 -1 0 0
141 0 5 0 7.072278594696864 4.244711489698878 -16.2438245752268 0 0 0
143 0 5 0 9.098124472406994 4.056028804312 -14.261426116238482 0 0 0
25 0 5 0 11.058040746329103 12.04466376580969 -16.083479990622415 -1 -1 0
45 0 5 0 6.9508510516491535 12.074139723588964 -16.12854606568231 0 -1 0
47 0 5 0 8.968225331537049 12.066150945904104 -14.11492451914779 0 -1 0
4 0 5 0 11.031275101764434 10.103078455701375 -14.040951391568703 -1 -1 0
1 0 5 0 11.048045490276198 8.11704631155858 -16.059070653133432 -1 -1 0
124 0 5 0 11.052769453053513 6.134589442591674 -14.088484315239759 -1 0 0
18 0 5 0 4.9809200995898255 10.115569552366678 -16.033829729091657 0 -1 0
22 0 5 0 8.971843003710047 10.070548499680882 -16.210476297862822 0 -1 0
24 0 5 0 6.959707256199645 10.052654481190332 -14.09069547172592 0 -1 0
21 0 5 0 6.933716834095692 8.091233635548983 -16.097149059050178 0 -1 0
19 0 5 0 4.946340178069524 8.0338897539881 -14.120526485385222 0 -1 0
23 0 5 0 8.969238776603637 8.129375297190249 -14.104363607893106 0 -1 0
138 0 5 0 4.8612250681089 6.065008614234546 -16.223592730219227 0 0 0
142 0 5 0 9.084907980200876 6.200614353839238 -16.16350209769478 0 0 0
144 0 5 0 6.986819310108172 6.095748409611846 -14.163823064133044 0 0 0
215 0 5 0 7.010500852487676 4.074538852866426 -12.177237948764922 0 0 0
154 0 5 0 4.955794759779607 10.053924696064692 -12.187853967632412 0 -1 0
160 0 5 0 -7.168291785411289 -10.113552380297708 -12.087182203422008 0 0 0
183 0 5 0 -9.250023073013203 -4.135084143151824 -12.052671166833003 0 0 0
170 0 5 0 -11.251823444101547 -6.14405975128023 -12.045687177897076 0 0 0
513 27 2 0.5564 -9.152950601482504 -10.382102438241802 -9.960871283676383 0 0 0
511 27 1 -1.1128 -9.688894700216391 -9.708326178592527 -9.542515901281648 0 0 0
667 79 1 -1.1128 -7.216466391015918 -11.601788828514467 -8.84799168887255 0 0 0
1502 357 2 0.5564 -10.614758283933055 -9.83742292117191 -6.5588882332221665 1 0 0
1501 357 1 -1.1128 -11.29991565185294 -9.186534537156826 -6.406784747076599 1 0 0
686 85 2 0.5564 -9.885877539308845 -5.227898585736574 -9.538912329831946 0 0 0
685 85 1 -1.1128 -9.839441464363912 -6.176949594710352 -9.423251498369105 0 0 0
945 171 2 0.5564 -9.516810515078275 -10.573189140449418 -7.963297146360281 0 0 0
943 171 1 -1.1128 -9.213313005665976 -10.89877450484829 -7.115880488732817 0 0 0
944 171 2 0.5564 -8.528639223006268 -10.283422692839133 -6.853591067241728 0 0 0
687 85 2 0.5564 -10.711354934527602 -6.490870423138085 -9.662943354918506 0 0 0
827 132 2 0.5564 -9.812787014265444 -11.8160993482648 -5.3470257455770795 0 1 0
828 132 2 0.5564 -11.298780648557042 -11.98118408406622 -5.1094022077099 0 1 0
554 41 2 0.5564 -8.327665620714189 -7.132103333361476 -8.970593725248852 1 0 0
642 70 2 0.5564 -10.468855729083115 -7.269350056598128 -6.435159268676683 1 0 0
555 41 2 0.5564 -7.768760233610255 -8.101631750599282 -7.951018216099162 1 0 0
553 41 1 -1.1128 -7.775030474436026 -7.9093531411543685 -8.888686231155168 1 0 0
1056 208 2 0.5564 -6.629594155108616 -6.206202355082882 -6.215811394463137 0 0 0
640 70 1 -1.1128 -10.283573152871867 -6.330372628907583 -6.450099327554438 1 0 0
744 104 2 0.5564 -7.949701655786927 -8.314001647087187 -5.734670703605108 0 1 0
1503 357 2 0.5564 -11.32111021952862 -9.078107852317068 -5.455981803571366 1 0 0
641 70 2 0.5564 -9.496212315880294 -6.23257276130396 -5.914627982856649 1 0 0
741 103 2 0.5564 -7.447077369907104 -4.672393990602689 -9.480033981832765 0 0 0
742 104 1 -1.1128 -7.5694738441655485 -8.820403632462336 -6.4524559367948715 0 1 0
743 104 2 0.5564 -6.719846165517893 -9.108771314215776 -6.118977031495897 0 1 0
891 153 2 0.5564 -5.661887738247586 -10.237334302085321 -8.965973254067821 0 0 0
890 153 2 0.5564 -5.735762677494583 -8.754538579540277 -9.262206692402637 0 0 0
512 27 2 0.5564 -9.066786844773475 -9.021614315183937 -9.302431520703704 0 0 0
1245 271 2 0.5564 -4.87214381829944 -10.33017097158838 -5.773903529525867 0 1 0
1243 271 1 -1.1128 -4.984729671995898 -9.397315048753626 -5.59132208145036 0 1 0
668 79 2 0.5564 -7.894125983789273 -11.607249525772982 -8.171989160320715 0 0 0
2032 534 1 -1.1128 -6.965878194621735 -12.01628338865399 -4.070859658504043 0 1 0
2033 534 2 0.5564 -6.308732612803515 -11.936204064933902 -4.762219792164962 0 1 0
1054 208 1 -1.1128 -5.919528120143753 -6.34708744704336 -6.842061520764353 0 0 0
1055 208 2 0.5564 -5.885076836483706 -7.296839469707409 -6.956148920272069 0 0 0
567 45 2 0.5564 -4.159290334705105 -5.603649684031517 -7.082209017975945 1 0 0
2389 0 3 1 -11.535624490275856 -4.9382937442758 -7.745299239365199 1 0 0
185 0 5 0 -5.136572510554397 -4.076001943096636 -12.115621215482193 0 0 0
925 165 1 -1.1128 -5.2613354513170965 -11.976689888983772 -6.263379786613341 1 0 0
2155 575 1 -1.1128 -8.156516029687024 -6.317277294250953 -4.8133273792014 1 1 0
2156 575 2 0.5564 -7.763548726311284 -5.459336649625534 -4.652870709850895 1 1 0
889 153 1 -1.1128 -5.151102806971171 -9.429287797496569 -8.91707176691125 0 0 0
1244 271 2 0.5564 -4.216681171430827 -8.981669351497386 -5.983204472995531 0 1 0
645 71 2 0.5564 -11.479504628663705 -10.406532679153951 -9.620834838576968 1 0 0
927 165 2 0.5564 -5.607863000410771 -11.984346200359175 -7.155619575446885 1 0 0
2157 575 2 0.5564 -8.699661143945228 -6.480465107887279 -4.042227664997719 1 1 0
174 0 5 0 -3.0528512712981533 -6.043516091564709 -12.111712608099287 0 0 0
163 0 5 0 -1.0582338212382656 -12.035066521371906 -12.026094797493581 0 0 0
164 0 5 0 0.9496299255514936 -10.05128177133175 -12.03876056603234 0 0 0
175 0 5 0 -1.0359916324301206 -8.02835526064214 -12.102766300980841 0 0 0
176 0 5 0 0.9360686237037616 -5.9519881054442205 -12.079679900775586 0 0 0
450 6 2 0.5564 -2.1235375283458096 -10.37447135389726 -7.463652900748046 0 0 0
1334 301 2 0.5564 1.2911281235840066 -7.611535019528956 -8.386625945714437 0 0 0
1335 301 2 0.5564 1.526923338239793 -7.791694656616666 -9.871158946108459 0 0 0
1333 301 1 -1.1128 1.6597412971317047 -7.172648157931657 -9.153264375513672 0 0 0
1455 341 2 0.5564 -0.3024936481826374 -10.365357156366374 -8.441131074075102 0 0 0
1453 341 1 -1.1128 -0.027999825853996196 -9.652103901784601 -9.017459724153678 0 0 0
1454 341 2 0.5564 -0.846882123115283 -9.268775785291941 -9.331662122494542 0 0 0
449 6 2 0.5564 -2.44472003158367 -11.629770397126574 -8.246571236321206 0 0 0
448 6 1 -1.1128 -1.9120836309638 -11.306321337983583 -7.519996391453342 0 0 0
1095 221 2 0.5564 3.5015186747410487 -6.887226029123628 -9.11785105664911 0 0 0
792 120 2 0.5564 -2.1876280167153217 -8.193958400104409 -8.457341145558557 1 0 0
791 120 2 0.5564 -3.354838180944555 -8.890801330427928 -9.123617903713017 1 0 0
501 23 2 0.5564 2.445351267157861 -8.023688017369647 -5.852346487773359 0 0 0
790 120 1 -1.1128 -2.563791544594516 -8.387355044333297 -9.316020477561421 1 0 0
1118 229 2 0.5564 -2.744855444955487 -7.58488586577977 -6.58489207703229 0 0 0
1119 229 2 0.5564 -2.216886495242413 -8.581930874169565 -5.575414396517003 0 0 0
1117 229 1 -1.1128 -2.457696415456002 -8.49381736952082 -6.49762825980769 0 0 0
499 23 1 -1.1128 1.5748893120440313 -7.9392533054908805 -6.241446211294503 0 0 0
500 23 2 0.5564 1.4395149108496166 -6.995289260803136 -6.324134991204613 0 0 0
177 0 5 0 3.030232882282419 -8.001526173292525 -12.100933205511808 0 0 0
975 181 2 0.5564 2.014300613105526 -4.953425013171812 -5.8413905184869135 0 0 0
973 181 1 -1.1128 1.4564054206140138 -5.300103929931948 -6.537665256592128 0 0 0
626 65 2 0.5564 1.4734094981199592 -5.3444349447903745 -9.522715466781422 0 0 0
913 161 1 -1.1128 2.208722137164818 -11.751051792644299 -8.252810961184654 0 0 0
915 161 2 0.5564 2.0632344673747327 -10.858044914422804 -8.565227063661576 0 0 0
914 161 2 0.5564 2.6213264054963576 -11.641350971679282 -7.396099093788495 0 0 0
802 124 1 -1.1128 -0.0680344836910059 -10.216885067743153 -4.569269676294779 0 1 0
736 102 1 -1.1128 -3.440667439574079 -12.066876806585494 -9.656677234659991 0 1 0
804 124 2 0.5564 0.6835653272883484 -9.9135721993786 -5.078515044320984 0 1 0
565 45 1 -1.1128 -3.222318611138736 -5.717218283107287 -7.241639291992827 1 0 0
974 181 2 0.5564 1.5649212540609134 -4.683370771425889 -7.2616102022506235 0 0 0
625 65 1 -1.1128 1.4877106079397737 -4.399379935032988 -9.371394869355527 0 0 0
627 65 2 0.5564 2.4152402923853167 -4.1651451086683435 -9.403867344504684 0 0 0
1379 316 2 0.5564 3.7354992854813354 -7.243362478063273 -4.914424811317086 -1 0 0
786 118 2 0.5564 -3.106352274972418 -4.621293273319221 -10.481976361295871 0 0 0
566 45 2 0.5564 -3.0516582880922565 -5.2141348445251845 -8.037889062536058 1 0 0
784 118 1 -1.1128 -3.083760712115143 -4.197320611980142 -9.62409021877627 0 0 0
1133 234 2 0.5564 0.3286989688506179 -6.0560453220989565 -5.0049967850028 0 0 0
1620 396 2 0.5564 -2.1503160409220854 -4.412376911456115 -5.956168584599382 0 1 0
1132 234 1 -1.1128 -0.27063638719788186 -6.132002021313132 -4.262528298930275 0 0 0
1134 234 2 0.5564 -0.9242433269350463 -5.448600283562852 -4.410824351879873 0 0 0
738 102 2 0.5564 -3.6720189921526174 -11.46331760800704 -10.362669153783317 0 1 0
1030 200 1 -1.1128 -2.675271575657158 -11.37862118509801 -4.1373875824686515 0 0 0
456 8 2 0.5564 3.4027631058013967 -10.498940160403134 -4.515490281768102 -1 0 0
541 37 1 -1.1128 3.5532929158522037 -11.897796388534259 -5.706982605489308 0 0 0
607 59 1 -1.1128 2.9137859439296556 -5.787044573378039 -4.25259389552753 0 0 0
644 71 2 0.5564 11.531043423087308 -10.898359075884045 -10.354625800449544 0 0 0
1093 221 1 -1.1128 4.452856398551633 -6.905873268023851 -9.221968596758492 0 0 0
1094 221 2 0.5564 4.79040172424116 -6.98553775882414 -8.32980911810295 0 0 0
643 71 1 -1.1128 11.845027283862509 -10.650826274476842 -9.484928655141923 0 0 0
749 106 2 0.5564 4.41415143221458 -4.798536397987999 -9.472023486104145 0 0 0
180 0 5 0 9.064240051523988 -6.150444800659207 -12.076418025989254 0 0 0
179 0 5 0 7.0150847283103595 -8.172174123865771 -12.011973969530242 0 0 0
169 0 5 0 11.037881850718724 -8.163436219024959 -12.044117791118182 -1 0 0
2397 0 4 -1 11.185423896388691 -6.563596842446636 -8.857180242581851 0 0 0
166 0 5 0 4.945735524388174 -10.143010341474481 -11.978850744581397 0 0 0
178 0 5 0 5.059886908559608 -6.039109964739497 -12.057438537080927 0 0 0
963 177 2 0.5564 9.83328742676743 -11.775527987695973 -7.157761536044133 -1 0 0
961 177 1 -1.1128 9.678377503355277 -10.915407699495828 -6.7673420662451775 -1 0 0
621 63 2 0.5564 7.818091523905067 -10.825516815621539 -5.954263947995021 0 0 0
620 63 2 0.5564 6.765002933077015 -10.180903524187306 -5.07826556410226 0 0 0
619 63 1 -1.1128 7.103769199171248 -11.033297420513097 -5.351932958497519 0 0 0
964 178 1 -1.1128 6.497842943042116 -11.524187544312474 -8.525773908539847 0 0 0
533 34 2 0.5564 6.458965891139808 -9.649474301097506 -8.866072091460145 0 0 0
1223 264 2 0.5564 7.406045427659198 -6.79774796072647 -6.458869410940849 0 0 0
534 34 2 0.5564 5.703000004323943 -8.419849207535055 -9.322616581500478 0 0 0
532 34 1 -1.1128 6.58643997591007 -8.742802170684001 -9.145227557243295 0 0 0
946 172 1 -1.1128 9.175623843056526 -11.846139233419512 -9.605890555766383 -1 0 0
947 172 2 0.5564 9.320934408754393 -10.902945455927322 -9.531714742852028 -1 0 0
2386 0 3 1 10.940191261242658 -9.31385617487634 -7.881407979071252 0 0 0
700 90 1 -1.1128 9.500151313767192 -8.809223911656675 -9.675247175251533 0 0 0
701 90 2 0.5564 9.635292678809483 -7.877140787256723 -9.846096943929174 0 0 0
702 90 2 0.5564 8.578941535221523 -8.87605520981261 -9.423974573193071 0 0 0
1224 264 2 0.5564 6.852472456145012 -7.452486838158432 -7.706574936824933 0 0 0
1222 264 1 -1.1128 6.604351671191837 -6.8887171843807895 -6.973887274940111 0 0 0
1378 316 1 -1.1128 4.208740526239806 -7.891770304671259 -5.435809370395293 -1 0 0
962 177 2 0.5564 10.168895598796704 -10.933004303682011 -5.945567170295497 -1 0 0
1682 417 2 0.5564 10.20536659810517 -7.044108401426736 -7.085729925344618 0 0 0
1683 417 2 0.5564 9.917243553870987 -7.3457342727890325 -5.6304287098551224 0 0 0
1681 417 1 -1.1128 9.699693508815166 -7.626823015272822 -6.519187796817445 0 0 0
966 178 2 0.5564 6.7496463274361345 -11.832106031841374 -7.655134565084265 0 0 0
948 172 2 0.5564 8.27492091248555 -11.974326025188336 -9.308343718365695 -1 0 0
659 76 2 0.5564 5.995126341395998 -8.470466338149611 -4.394651679018431 -1 0 0
1380 316 2 0.5564 4.812967698720212 -7.375823902205993 -5.969607670678619 -1 0 0
1655 408 2 0.5564 9.86851107894487 -4.992208731663221 -8.594509222172583 0 0 0
181 0 5 0 11.025751644549086 -4.042936745426953 -12.03476261547473 -1 0 0
1656 408 2 0.5564 8.524217392561074 -4.414849081071706 -8.205375063009095 0 0 0
1654 408 1 -1.1128 9.433305318492568 -4.16824878071022 -8.375607931904103 0 0 0
712 94 1 -1.1128 6.3600266878726766 -4.054461457211299 -7.416639993924543 0 0 0
714 94 2 0.5564 6.21240484126274 -4.919956845903895 -7.0353824731663686 0 0 0
1449 339 2 0.5564 11.62321225788064 -4.0496468662305265 -4.785461325558775 -1 0 0
750 106 2 0.5564 4.869003183733015 -4.0717520021097044 -8.224310086190322 0 0 0
568 46 1 -1.1128 11.103625919839939 -11.288238046805535 -4.5262491857760345 0 0 0
739 103 1 -1.1128 -7.4617946949390905 -3.7254696344987 -9.340932459094931 0 0 0
740 103 2 0.5564 -8.344990810334206 -3.4590852405288977 -9.596345058220876 0 0 0
2405 0 4 -1 -10.405288128546527 -2.945632187320802 -8.872479481436699 0 0 0
182 0 5 0 -11.208641746367457 -1.9307261260992512 -12.071563901978612 0 0 0
184 0 5 0 -7.238708785117248 -2.0202001062277835 -12.05903704570331 0 0 0
196 0 5 0 -7.15242804924136 1.994352737084904 -12.04390066068487 0 0 0
194 0 5 0 -11.150927044601499 2.0725931852237154 -12.004059323231049 0 0 0
195 0 5 0 -9.117540353413684 0.021391843812335606 -12.110032450124983 0 0 0
1014 194 2 0.5564 -8.615229212213116 -1.1762533762870133 -9.017071572009174 0 0 0
1012 194 1 -1.1128 -7.930139062205333 -0.5222225058223856 -9.155371410016018 0 0 0
1013 194 2 0.5564 -7.7099862122868625 -0.5979290034405327 -10.08382867410518 0 0 0
1177 249 1 -1.1128 -5.209752385402985 0.8189983674608742 -9.238325045602872 0 0 0
1178 249 2 0.5564 -4.910615546421372 -0.08345129253589725 -9.34938141573624 0 0 0
1154 241 2 0.5564 -10.955566741549855 0.24465436999309242 -10.530847127791887 0 0 0
1330 300 1 -1.1128 -4.492661002568009 -1.4737847067077063 -6.754397111283734 0 0 0
1242 270 2 0.5564 -9.626709182569126 1.066726252106433 -6.971667515669971 0 0 0
1331 300 2 0.5564 -4.516045421893899 -1.9345307194172543 -5.915708826308191 0 0 0
1155 241 2 0.5564 -10.733620551278625 -0.8820937194483531 -9.544402150916145 0 0 0
1153 241 1 -1.1128 -10.669889762589067 0.06873539235666937 -9.634369162322482 0 0 0
1240 270 1 -1.1128 -9.446942542801017 1.5482378600532438 -7.779171188404043 0 0 0
1241 270 2 0.5564 -9.860205557111202 1.0262538860479216 -8.466905232446493 0 0 0
2390 0 3 1 -7.096512966047187 1.4172138802111478 -8.093854278111959 0 0 0
581 50 2 0.5564 -5.859286805918082 -2.6733911486337596 -9.627982562969182 0 0 0
596 55 2 0.5564 -6.254231645480891 3.8153189248781527 -9.738391504815318 0 0 0
934 168 1 -1.1128 -10.247246886077528 0.367085502638221 -5.593613531159266 1 0 0
936 168 2 0.5564 -11.06101835172171 -0.12068207987338633 -5.720461655215098 1 0 0
582 50 2 0.5564 -4.931168053734129 -2.130007637691746 -8.562513123412849 0 0 0
868 146 1 -1.1128 -6.842835738094959 0.07778367175426451 -6.230698094020771 0 -1 0
595 55 1 -1.1128 -7.077596024190382 3.5235708145429023 -9.34700173663823 0 0 0
882 150 2 0.5564 -7.915931330288195 -3.4663630088287682 -7.242783263606603 0 -1 0
880 150 1 -1.1128 -8.213738901446442 -2.852578892627564 -6.571358595827847 0 -1 0
881 150 2 0.5564 -8.972260972366941 -2.418831303230612 -6.9621770938515954 0 -1 0
580 50 1 -1.1128 -4.984722740868465 -2.3052899401811935 -9.50200226075027 0 0 0
869 146 2 0.5564 -5.918369642057902 -0.16640038201078763 -6.2750622891207195 0 -1 0
935 168 2 0.5564 -9.737042397583274 -0.170657817198133 -4.988010460965815 1 0 0
990 186 2 0.5564 -7.712995989028473 -3.4776017713221403 -4.81409334119687 1 0 0
870 146 2 0.5564 -7.314864054861383 -0.7402460996952953 -6.386415877060892 0 -1 0
1179 249 2 0.5564 -4.412083669835437 1.3154183409963216 -9.055230699897248 0 0 0
209 0 5 0 -5.103821236457562 3.9181788457318154 -12.106510276260126 0 0 0
495 21 2 0.5564 -11.819008242389732 2.251117914513003 -4.914766164600501 1 -1 0
2103 557 2 0.5564 -10.361936885794682 3.1631396493742066 -6.876900414432339 0 0 0
1463 344 2 0.5564 -4.717511401814586 3.0896765000681663 -6.897788115191921 0 0 0
1464 344 2 0.5564 -5.680471080730092 3.20160025085467 -5.734999851279788 0 0 0
1462 344 1 -1.1128 -5.634884919051427 2.9565505434556383 -6.659177465359994 0 0 0
1529 366 2 0.5564 -6.592763597170054 0.7415953179719832 -4.120312446639434 0 0 0
989 186 2 0.5564 -6.392675067209676 -3.8369793410771877 -4.166408518578943 1 0 0
1024 198 1 -1.1128 -4.414225742130615 -3.7455031808399997 -4.315157560096151 0 0 0
187 0 5 0 -1.02564744154139 -4.038187672466269 -12.067965290291886 0 0 0
189 0 5 0 3.0445227541460826 -3.9987068038908404 -12.096723011799801 0 0 0
1332 300 2 0.5564 -3.7357576581326564 -0.8916839266891361 -6.687406036900013 0 0 0
1182 250 2 0.5564 -1.9579268810086643 -0.04991726609591872 -5.267846118366196 0 0 0
453 7 2 0.5564 -2.8932695141181726 3.9862044375022623 -9.614159441680801 0 -1 0
950 173 2 0.5564 -0.5257977991889976 -2.3502008697171215 -6.117747902681411 0 0 0
949 173 1 -1.1128 -0.367741286401827 -1.4949796921446403 -6.517555754102152 0 0 0
951 173 2 0.5564 -0.4940631942691164 -1.6412926412277917 -7.45503478402426 0 0 0
1180 250 1 -1.1128 -2.7505994324594094 0.43629241965467 -5.494786530248105 0 0 0
734 101 2 0.5564 1.570402631839414 3.1853579546211614 -6.414158731641162 0 0 0
747 105 2 0.5564 -2.0675264237124904 -1.1491558621312346 -9.40301638335722 0 0 0
745 105 1 -1.1128 -2.3001460227526977 -0.24376148919588614 -9.608882579653788 0 0 0
593 54 2 0.5564 3.1863481038489025 0.02530579526662893 -4.795027204707799 0 0 0
592 54 1 -1.1128 3.949878330446044 -0.513335757398439 -5.002677465012349 0 0 0
594 54 2 0.5564 3.746033743846141 -0.9005743510066866 -5.853985502147293 0 0 0
617 62 2 0.5564 -0.1056269598472359 -3.222542503250062 -9.23029873830373 0 0 0
616 62 1 -1.1128 -0.858484817510136 -2.678908227324577 -8.998138151512283 0 0 0
618 62 2 0.5564 -1.6191897888075266 -3.2007041073669935 -9.253654752934944 0 0 0