LAMMPS data file via write_data, version 29 Aug 2024, timestep = 12000, units = real

1680 atoms
5 atom types
812 bonds
1 bond types
406 angles
1 angle types

-12.120000000000001 12.120000000000001 xlo xhi
-12.120000000000001 12.120000000000001 ylo yhi
-20.2 20.2 zlo zhi

Atom Type Labels

1 O
2 H
3 Na+
4 Cl-
5 WALL

Bond Type Labels

1 O-H

Angle Type Labels

1 H-O-H

Masses

1 15.9994
2 1.008
3 22.99
4 35.453
5 26.9815

Atoms # full

1 0 5 0 -12.120000000000001 -12.120000000000001 -16.16 0 0 0
2 0 5 0 -10.1 -10.1 -16.16 0 0 0
3 0 5 0 -10.1 -12.120000000000001 -14.14 0 0 0
4 0 5 0 -12.120000000000001 -10.1 -14.14 0 0 0
5 0 5 0 -8.08 -12.120000000000001 -16.16 0 0 0
6 0 5 0 -6.0600000000000005 -10.1 -16.16 0 0 0
7 0 5 0 -6.0600000000000005 -12.120000000000001 -14.14 0 0 0
8 0 5 0 -8.08 -10.1 -14.14 0 0 0
25 0 5 0 -12.120000000000001 -8.08 -16.16 0 0 0
26 0 5 0 -10.1 -6.0600000000000005 -16.16 0 0 0
27 0 5 0 -10.1 -8.08 -14.14 0 0 0
28 0 5 0 -12.120000000000001 -6.0600000000000005 -14.14 0 0 0
29 0 5 0 -8.08 -8.08 -16.16 0 0 0
30 0 5 0 -6.0600000000000005 -6.0600000000000005 -16.16 0 0 0
31 0 5 0 -6.0600000000000005 -8.08 -14.14 0 0 0
32 0 5 0 -8.08 -6.0600000000000005 -14.14 0 0 0
145 0 5 0 -12.120000000000001 -12.120000000000001 -12.120000000000001 0 0 0
146 0 5 0 -10.1 -10.1 -12.120000000000001 0 0 0
147 0 5 0 -8.08 -12.120000000000001 -12.120000000000001 0 0 0
148 0 5 0 -6.0600000000000005 -10.1 -12.120000000000001 0 0 0
157 0 5 0 -12.120000000000001 -8.08 -12.120000000000001 0 0 0
158 0 5 0 -10.1 -6.0600000000000005 -12.120000000000001 0 0 0
159 0 5 0 -8.08 -8.08 -12.120000000000001 0 0 0
160 0 5 0 -6.0600000000000005 -6.0600000000000005 -12.120000000000001 0 0 0
9 0 5 0 -4.04 -12.120000000000001 -16.16 0 0 0
10 0 5 0 -2.02 -10.1 -16.16 0 0 0
11 0 5 0 -2.02 -12.120000000000001 -14.14 0 0 0
12 0 5 0 -4.04 -10.1 -14.14 0 0 0
13 0 5 0 0 -12.120000000000001 -16.16 0 0 0
14 0 5 0 2.02 -10.1 -16.16 0 0 0
15 0 5 0 2.02 -12.120000000000001 -14.14 0 0 0
16 0 5 0 0 -10.1 -14.14 0 0 0
17 0 5 0 4.04 -12.120000000000001 -16.16 0 0 0
20 0 5 0 4.04 -10.1 -14.14 0 0 0
33 0 5 0 -4.04 -8.08 -16.16 0 0 0
34 0 5 0 -2.02 -6.0600000000000005 -16.16 0 0 0
35 0 5 0 -2.02 -8.08 -14.14 0 0 0
36 0 5 0 -4.04 -6.0600000000000005 -14.14 0 0 0
37 0 5 0 0 -8.08 -16.16 0 0 0
38 0 5 0 2.02 -6.0600000000000005 -16.16 0 0 0
39 0 5 0 2.02 -8.08 -14.14 0 0 0
40 0 5 0 0 -6.0600000000000005 -14.14 0 0 0
41 0 5 0 4.04 -8.08 -16.16 0 0 0
44 0 5 0 4.04 -6.0600000000000005 -14.14 0 0 0
149 0 5 0 -4.04 -12.120000000000001 -12.120000000000001 0 0 0
150 0 5 0 -2.02 -10.1 -12.120000000000001 0 0 0
151 0 5 0 0 -12.120000000000001 -12.120000000000001 0 0 0
152 0 5 0 2.02 -10.1 -12.120000000000001 0 0 0
153 0 5 0 4.04 -12.120000000000001 -12.120000000000001 0 0 0
161 0 5 0 -4.04 -8.08 -12.120000000000001 0 0 0
162 0 5 0 -2.02 -6.0600000000000005 -12.120000000000001 0 0 0
163 0 5 0 0 -8.08 -12.120000000000001 0 0 0
164 0 5 0 2.02 -6.0600000000000005 -12.120000000000001 0 0 0
165 0 5 0 4.04 -8.08 -12.120000000000001 0 0 0
18 0 5 0 6.0600000000000005 -10.1 -16.16 0 0 0
19 0 5 0 6.0600000000000005 -12.120000000000001 -14.14 0 0 0
21 0 5 0 8.08 -12.120000000000001 -16.16 0 0 0
22 0 5 0 10.1 -10.1 -16.16 0 0 0
23 0 5 0 10.1 -12.120000000000001 -14.14 0 0 0
24 0 5 0 8.08 -10.1 -14.14 0 0 0
42 0 5 0 6.0600000000000005 -6.0600000000000005 -16.16 0 0 0
43 0 5 0 6.0600000000000005 -8.08 -14.14 0 0 0
45 0 5 0 8.08 -8.08 -16.16 0 0 0
46 0 5 0 10.1 -6.0600000000000005 -16.16 0 0 0
47 0 5 0 10.1 -8.08 -14.14 0 0 0
48 0 5 0 8.08 -6.0600000000000005 -14.14 0 0 0
154 0 5 0 6.0600000000000005 -10.1 -12.120000000000001 0 0 0
155 0 5 0 8.08 -12.120000000000001 -12.120000000000001 0 0 0
156 0 5 0 10.1 -10.1 -12.120000000000001 0 0 0
166 0 5 0 6.0600000000000005 -6.0600000000000005 -12.120000000000001 0 0 0
167 0 5 0 8.08 -8.08 -12.120000000000001 0 0 0
168 0 5 0 10.1 -6.0600000000000005 -12.120000000000001 0 0 0
49 0 5 0 -12.120000000000001 -4.04 -16.16 0 0 0
50 0 5 0 -10.1 -2.02 -16.16 0 0 0
51 0 5 0 -10.1 -4.04 -14.14 0 0 0
52 0 5 0 -12.120000000000001 -2.02 -14.14 0 0 0
53 0 5 0 -8.08 -4.04 -16.16 0 0 0
54 0 5 0 -6.0600000000000005 -2.02 -16.16 0 0 0
55 0 5 0 -6.0600000000000005 -4.04 -14.14 0 0 0
56 0 5 0 -8.08 -2.02 -14.14 0 0 0
73 0 5 0 -12.120000000000001 0 -16.16 0 0 0
74 0 5 0 -10.1 2.02 -16.16 0 0 0
75 0 5 0 -10.1 0 -14.14 0 0 0
76 0 5 0 -12.120000000000001 2.02 -14.14 0 0 0
77 0 5 0 -8.08 0 -16.16 0 0 0
78 0 5 0 -6.0600000000000005 2.02 -16.16 0 0 0
79 0 5 0 -6.0600000000000005 0 -14.14 0 0 0
80 0 5 0 -8.08 2.02 -14.14 0 0 0
97 0 5 0 -12.120000000000001 4.04 -16.16 0 0 0
99 0 5 0 -10.1 4.04 -14.14 0 0 0
101 0 5 0 -8.08 4.04 -16.16 0 0 0
103 0 5 0 -6.0600000000000005 4.04 -14.14 0 0 0
169 0 5 0 -12.120000000000001 -4.04 -12.120000000000001 0 0 0
170 0 5 0 -10.1 -2.02 -12.120000000000001 0 0 0
171 0 5 0 -8.08 -4.04 -12.120000000000001 0 0 0
172 0 5 0 -6.0600000000000005 -2.02 -12.120000000000001 0 0 0
181 0 5 0 -12.120000000000001 0 -12.120000000000001 0 0 0
182 0 5 0 -10.1 2.02 -12.120000000000001 0 0 0
183 0 5 0 -8.08 0 -12.120000000000001 0 0 0
184 0 5 0 -6.0600000000000005 2.02 -12.120000000000001 0 0 0
193 0 5 0 -12.120000000000001 4.04 -12.120000000000001 0 0 0
195 0 5 0 -8.08 4.04 -12.120000000000001 0 0 0
57 0 5 0 -4.04 -4.04 -16.16 0 0 0
58 0 5 0 -2.02 -2.02 -16.16 0 0 0
59 0 5 0 -2.02 -4.04 -14.14 0 0 0
60 0 5 0 -4.04 -2.02 -14.14 0 0 0
61 0 5 0 0 -4.04 -16.16 0 0 0
62 0 5 0 2.02 -2.02 -16.16 0 0 0
63 0 5 0 2.02 -4.04 -14.14 0 0 0
64 0 5 0 0 -2.02 -14.14 0 0 0
65 0 5 0 4.04 -4.04 -16.16 0 0 0
68 0 5 0 4.04 -2.02 -14.14 0 0 0
81 0 5 0 -4.04 0 -16.16 0 0 0
82 0 5 0 -2.02 2.02 -16.16 0 0 0
83 0 5 0 -2.02 0 -14.14 0 0 0
84 0 5 0 -4.04 2.02 -14.14 0 0 0
85 0 5 0 0 0 -16.16 0 0 0
86 0 5 0 2.02 2.02 -16.16 0 0 0
87 0 5 0 2.02 0 -14.14 0 0 0
88 0 5 0 0 2.02 -14.14 0 0 0
89 0 5 0 4.04 0 -16.16 0 0 0
92 0 5 0 4.04 2.02 -14.14 0 0 0
105 0 5 0 -4.04 4.04 -16.16 0 0 0
107 0 5 0 -2.02 4.04 -14.14 0 0 0
109 0 5 0 0 4.04 -16.16 0 0 0
111 0 5 0 2.02 4.04 -14.14 0 0 0
113 0 5 0 4.04 4.04 -16.16 0 0 0
173 0 5 0 -4.04 -4.04 -12.120000000000001 0 0 0
174 0 5 0 -2.02 -2.02 -12.120000000000001 0 0 0
175 0 5 0 0 -4.04 -12.120000000000001 0 0 0
176 0 5 0 2.02 -2.02 -12.120000000000001 0 0 0
177 0 5 0 4.04 -4.04 -12.120000000000001 0 0 0
185 0 5 0 -4.04 0 -12.120000000000001 0 0 0
186 0 5 0 -2.02 2.02 -12.120000000000001 0 0 0
187 0 5 0 0 0 -12.120000000000001 0 0 0
188 0 5 0 2.02 2.02 -12.120000000000001 0 0 0
189 0 5 0 4.04 0 -12.120000000000001 0 0 0
197 0 5 0 -4.04 4.04 -12.120000000000001 0 0 0
199 0 5 0 0 4.04 -12.120000000000001 0 0 0
201 0 5 0 4.04 4.04 -12.120000000000001 0 0 0
66 0 5 0 6.0600000000000005 -2.02 -16.16 0 0 0
67 0 5 0 6.0600000000000005 -4.04 -14.14 0 0 0
69 0 5 0 8.08 -4.04 -16.16 0 0 0
70 0 5 0 10.1 -2.02 -16.16 0 0 0
71 0 5 0 10.1 -4.04 -14.14 0 0 0
72 0 5 0 8.08 -2.02 -14.14 0 0 0
90 0 5 0 6.0600000000000005 2.02 -16.16 0 0 0
91 0 5 0 6.0600000000000005 0 -14.14 0 0 0
93 0 5 0 8.08 0 -16.16 0 0 0
94 0 5 0 10.1 2.02 -16.16 0 0 0
95 0 5 0 10.1 0 -14.14 0 0 0
96 0 5 0 8.08 2.02 -14.14 0 0 0
115 0 5 0 6.0600000000000005 4.04 -14.14 0 0 0
117 0 5 0 8.08 4.04 -16.16 0 0 0
119 0 5 0 10.1 4.04 -14.14 0 0 0
178 0 5 0 6.0600000000000005 -2.02 -12.120000000000001 0 0 0
179 0 5 0 8.08 -4.04 -12.120000000000001 0 0 0
180 0 5 0 10.1 -2.02 -12.120000000000001 0 0 0
190 0 5 0 6.0600000000000005 2.02 -12.120000000000001 0 0 0
191 0 5 0 8.08 0 -12.120000000000001 0 0 0
192 0 5 0 10.1 2.02 -12.120000000000001 0 0 0
203 0 5 0 8.08 4.04 -12.120000000000001 0 0 0
98 0 5 0 -10.1 6.0600000000000005 -16.16 0 0 0
100 0 5 0 -12.120000000000001 6.0600000000000005 -14.14 0 0 0
102 0 5 0 -6.0600000000000005 6.0600000000000005 -16.16 0 0 0
104 0 5 0 -8.08 6.0600000000000005 -14.14 0 0 0
121 0 5 0 -12.120000000000001 8.08 -16.16 0 0 0
122 0 5 0 -10.1 10.1 -16.16 0 0 0
123 0 5 0 -10.1 8.08 -14.14 0 0 0
124 0 5 0 -12.120000000000001 10.1 -14.14 0 0 0
125 0 5 0 -8.08 8.08 -16.16 0 0 0
126 0 5 0 -6.0600000000000005 10.1 -16.16 0 0 0
127 0 5 0 -6.0600000000000005 8.08 -14.14 0 0 0
128 0 5 0 -8.08 10.1 -14.14 0 0 0
194 0 5 0 -10.1 6.0600000000000005 -12.120000000000001 0 0 0
196 0 5 0 -6.0600000000000005 6.0600000000000005 -12.120000000000001 0 0 0
205 0 5 0 -12.120000000000001 8.08 -12.120000000000001 0 0 0
206 0 5 0 -10.1 10.1 -12.120000000000001 0 0 0
207 0 5 0 -8.08 8.08 -12.120000000000001 0 0 0
208 0 5 0 -6.0600000000000005 10.1 -12.120000000000001 0 0 0
106 0 5 0 -2.02 6.0600000000000005 -16.16 0 0 0
108 0 5 0 -4.04 6.0600000000000005 -14.14 0 0 0
110 0 5 0 2.02 6.0600000000000005 -16.16 0 0 0
112 0 5 0 0 6.0600000000000005 -14.14 0 0 0
116 0 5 0 4.04 6.0600000000000005 -14.14 0 0 0
129 0 5 0 -4.04 8.08 -16.16 0 0 0
130 0 5 0 -2.02 10.1 -16.16 0 0 0
131 0 5 0 -2.02 8.08 -14.14 0 0 0
132 0 5 0 -4.04 10.1 -14.14 0 0 0
133 0 5 0 0 8.08 -16.16 0 0 0
134 0 5 0 2.02 10.1 -16.16 0 0 0
135 0 5 0 2.02 8.08 -14.14 0 0 0
136 0 5 0 0 10.1 -14.14 0 0 0
137 0 5 0 4.04 8.08 -16.16 0 0 0
140 0 5 0 4.04 10.1 -14.14 0 0 0
198 0 5 0 -2.02 6.0600000000000005 -12.120000000000001 0 0 0
200 0 5 0 2.02 6.0600000000000005 -12.120000000000001 0 0 0
209 0 5 0 -4.04 8.08 -12.120000000000001 0 0 0
210 0 5 0 -2.02 10.1 -12.120000000000001 0 0 0
211 0 5 0 0 8.08 -12.120000000000001 0 0 0
212 0 5 0 2.02 10.1 -12.120000000000001 0 0 0
213 0 5 0 4.04 8.08 -12.120000000000001 0 0 0
114 0 5 0 6.0600000000000005 6.0600000000000005 -16.16 0 0 0
118 0 5 0 10.1 6.0600000000000005 -16.16 0 0 0
120 0 5 0 8.08 6.0600000000000005 -14.14 0 0 0
138 0 5 0 6.0600000000000005 10.1 -16.16 0 0 0
139 0 5 0 6.0600000000000005 8.08 -14.14 0 0 0
141 0 5 0 8.08 8.08 -16.16 0 0 0
142 0 5 0 10.1 10.1 -16.16 0 0 0
143 0 5 0 10.1 8.08 -14.14 0 0 0
144 0 5 0 8.08 10.1 -14.14 0 0 0
202 0 5 0 6.0600000000000005 6.0600000000000005 -12.120000000000001 0 0 0
204 0 5 0 10.1 6.0600000000000005 -12.120000000000001 0 0 0
214 0 5 0 6.0600000000000005 10.1 -12.120000000000001 0 0 0
215 0 5 0 8.08 8.08 -12.120000000000001 0 0 0
216 0 5 0 10.1 10.1 -12.120000000000001 0 0 0
583 51 1 -1.1128 -7.263465256717666 -7.712974785261128 -8.599265966002143 0 0 0
584 51 2 0.5564 -7.255766504286833 -8.209700376403491 -7.781075113120325 0 0 0
585 51 2 0.5564 -8.051280678785472 -7.172094674856585 -8.544244036583827 0 0 0
1396 322 1 -1.1128 -7.6606694971901605 -9.258836768605386 -6.219896693738146 0 0 0
1397 322 2 0.5564 -7.736919833141835 -10.1183139092019 -6.634283961885137 0 0 0
1398 322 2 0.5564 -7.5633806862033035 -9.449964485370304 -5.287031776261537 0 0 0
644 71 2 0.5564 -7.758680716347811 -4.399033695965297 -7.491874282404706 1 0 0
643 71 1 -1.1128 -8.155581733514907 -4.9189803198080675 -6.793048686456252 1 0 0
650 73 2 0.5564 -9.94238570394878 -6.786919238562363 -4.552407346846183 0 0 0
649 73 1 -1.1128 -10.806973868307313 -6.973573947514199 -4.918302377602625 0 0 0
565 45 1 -1.1128 -10.528907406759393 -6.083574480346262 -7.944641092861005 1 0 0
566 45 2 0.5564 -10.899029936507603 -6.834178408318726 -8.409221675092073 1 0 0
568 46 1 -1.1128 -10.59664089685153 -10.024307103608646 -6.038065612965625 1 0 0
570 46 2 0.5564 -9.747426856306038 -9.682054369168787 -5.758905179756525 1 0 0
651 73 2 0.5564 -11.194818469213853 -6.111609299530201 -5.069383041084263 0 0 0
497 22 2 0.5564 -7.786357074510034 -10.435440197440881 -9.3407256292124 1 0 0
496 22 1 -1.1128 -8.507738875061145 -9.833988090076279 -9.525375561237002 1 0 0
498 22 2 0.5564 -8.110945141465765 -8.963827905515664 -9.485277408547546 1 0 0
569 46 2 0.5564 -10.51798184763448 -10.972924221414518 -5.937218004451944 1 0 0
951 173 2 0.5564 -2.5825180507354712 -9.141376965721813 -8.823910754677533 0 0 0
645 71 2 0.5564 -8.891274561771562 -5.364231916202502 -7.213452147827135 1 0 0
449 6 2 0.5564 -5.209081629904165 -10.97498804101968 -8.802767842190661 0 0 0
567 45 2 0.5564 -11.063528777252152 -6.00279218723083 -7.154776469063443 1 0 0
828 132 2 0.5564 -5.6945647273196975 11.995419767652479 -6.031564295067914 0 0 0
446 5 2 0.5564 -10.69718619309281 -9.48287334767574 -7.825523758764157 0 0 0
445 5 1 -1.1128 -10.765532038663679 -8.805905847665828 -8.498781456115307 0 0 0
447 5 2 0.5564 -10.07608976575865 -9.021542899218383 -9.126795998279105 0 0 0
803 124 2 0.5564 -6.018722132877188 -7.558973277471191 -5.841488622875879 0 1 0
956 175 2 0.5564 -5.468806515565686 -6.637445591854163 -9.310428251191107 0 0 0
1372 314 1 -1.1128 -8.010160949403188 -6.02070788703007 -4.157135181376105 0 0 0
539 36 2 0.5564 -4.130144896043209 -6.416514309892898 -6.2738811342344505 0 0 0
827 132 2 0.5564 -4.795980683089123 -11.508590809159701 -5.06060520047795 0 1 0
826 132 1 -1.1128 -4.77683973680889 12.10142948784525 -5.781015545163788 0 0 0
949 173 1 -1.1128 -3.3118547977404154 -9.66857808153066 -9.150037710979094 0 0 0
1325 298 2 0.5564 -4.26575104733495 -7.988699830385492 -4.35244934944289 0 0 0
957 175 2 0.5564 -4.5270165640785756 -7.818934793680261 -9.215506164904951 0 0 0
955 175 1 -1.1128 -4.539975173283836 -6.862773582593608 -9.258163992821812 0 0 0
514 28 1 -1.1128 -10.646385408496247 11.682122372389323 -6.812230441492558 0 -1 0
515 28 2 0.5564 -9.751134853168523 11.38952364316863 -6.982947472235956 0 -1 0
802 124 1 -1.1128 -5.460047311175998 -7.1089706275316535 -5.207759937237202 0 1 0
804 124 2 0.5564 -6.062496761860308 -6.809322037782784 -4.526953432521177 0 1 0
540 36 2 0.5564 -4.015868228319592 -6.380957307141425 -7.7830437850353045 0 0 0
594 54 2 0.5564 -3.0576694478259245 -5.550099032682719 -9.543550277060913 0 0 0
526 32 1 -1.1128 -1.2588645062396897 -7.653238406432451 -8.207594470971124 0 0 0
527 32 2 0.5564 -1.501366062868139 -6.881639161039493 -7.695676959542908 0 0 0
950 173 2 0.5564 -2.9848805348610306 -10.053715224531206 -9.96305016821813 0 0 0
528 32 2 0.5564 -0.6730187673774684 -7.316906456217267 -8.885751906461323 0 0 0
961 177 1 -1.1128 -0.9624463069086804 -9.75155501151857 -6.415872548745975 0 0 0
963 177 2 0.5564 -0.03367925056541009 -9.9752185217135 -6.475858605612661 0 0 0
460 10 1 -1.1128 -0.019373161790553473 -10.257460015527323 -10.123856991062802 0 0 0
461 10 2 0.5564 0.5169809180467755 -10.146963883687526 -10.90893460220049 0 0 0
462 10 2 0.5564 0.5183753203979826 -10.791327545883677 -9.539011711072723 0 0 0
535 35 1 -1.1128 1.8712667425596992 -9.604420636916105 -6.852802965803246 0 0 0
536 35 2 0.5564 2.127687924670932 -8.759793053526943 -7.2230519580255255 0 0 0
537 35 2 0.5564 2.0721356934046384 -10.238941119333434 -7.540747304773394 0 0 0
964 178 1 -1.1128 2.5366554218971156 -6.8472107042550885 -7.350386229211903 0 0 0
966 178 2 0.5564 3.401596102580448 -6.478502158840149 -7.171043726698336 0 0 0
673 81 1 -1.1128 3.642351447893189 -5.697276032213103 -9.725242475483478 0 0 0
675 81 2 0.5564 4.545382309424934 -6.0028383807892585 -9.639226082702496 0 0 0
674 81 2 0.5564 3.656724480632002 -4.805323043681872 -9.378190373487012 0 0 0
458 9 2 0.5564 -1.3002896090564897 -11.50542476717069 -9.98382412455536 0 0 0
962 177 2 0.5564 -1.1152671655038624 -9.161207304956392 -7.153685062186574 0 0 0
965 178 2 0.5564 2.374019801965007 -6.640995989851429 -8.270851947966205 0 0 0
954 174 2 0.5564 1.1340491607527767 -6.377526191371165 -6.0100419210227 0 0 0
952 174 1 -1.1128 0.4134947462871155 -6.048151073302638 -5.472877466164047 0 0 0
479 16 2 0.5564 3.329770699557591 -10.101625513768212 -5.7750537792882035 0 0 0
1035 201 2 0.5564 0.20742031598373606 -4.972835446722374 -9.21182533669556 0 0 0
2399 0 4 -1 2.338308866254642 -11.603861103693928 -8.959935552289044 0 0 0
478 16 1 -1.1128 3.8560869629649708 -10.440918062256298 -5.0511036868921995 0 0 0
953 174 2 0.5564 0.841002163879707 -5.541101703510952 -4.782681669235618 0 0 0
453 7 2 0.5564 -1.8770345576873453 -11.341730416512966 -6.928689030713545 0 0 0
903 157 2 0.5564 -0.9997040295968228 -8.64956757974961 -5.091850982820814 0 0 0
592 54 1 -1.1128 -2.927618239742184 -4.610696825665612 -9.673327282346442 0 0 0
593 54 2 0.5564 -3.521653594842457 -4.382715302850689 -10.388434593051608 0 0 0
538 36 1 -1.1128 -3.5919533903089746 -6.067240621570709 -6.9842259040068875 0 0 0
1033 201 1 -1.1128 0.440187966952273 -5.879131118076282 -9.413516769108082 0 0 0
1034 201 2 0.5564 1.171902285738041 -5.80824283201653 -10.026542880395969 0 0 0
452 7 2 0.5564 -3.12796898692858 -11.970358913207127 -6.352594648429659 0 0 0
451 7 1 -1.1128 -2.411179736787546 12.104803405989706 -6.965190526280409 0 -1 0
465 11 2 0.5564 1.124354441054379 11.443960487361267 -7.069417828520236 0 -1 0
1326 298 2 0.5564 -2.8270951255230914 -8.39616930962697 -4.1155251334106175 0 0 0
1324 298 1 -1.1128 -3.7278353002765376 -8.6403418373069 -3.902736948337743 0 0 0
2387 0 3 1 11.94077581573027 -8.636632713439639 -5.272672534295006 0 0 0
948 172 2 0.5564 10.272814585354402 -9.223633642299857 -7.542679366078699 -1 0 0
947 172 2 0.5564 11.573024006637189 -8.527934700865172 -7.8852487698313425 -1 0 0
946 172 1 -1.1128 10.744587892729474 -8.3993699485444 -7.42330009760619 -1 0 0
1058 209 2 0.5564 9.386700345758554 -4.622536772473049 -7.401072730152719 0 0 0
480 16 2 0.5564 4.178007603639692 -11.286300575282553 -5.364037454454981 0 0 0
541 37 1 -1.1128 6.890174939912776 -8.910439473886871 -8.246374281626624 0 0 0
542 37 2 0.5564 6.283876302256359 -8.35709226579516 -8.738756969322933 0 0 0
543 37 2 0.5564 6.660649039360012 -8.76094593485587 -7.329203827438617 0 0 0
979 183 1 -1.1128 5.197389978513773 -6.21338078539021 -6.561211587658526 0 0 0
470 13 2 0.5564 6.2690643764361855 -10.698131051794737 -8.495009868101366 0 0 0
471 13 2 0.5564 4.797397677066607 -10.996657538142449 -8.687297192675953 0 0 0
986 185 2 0.5564 6.74657345119039 -8.871883579475748 -5.20302699187048 0 0 0
1057 209 1 -1.1128 8.621995178498741 -5.138847012057238 -7.146353913292792 0 0 0
469 13 1 -1.1128 5.652501513528696 -11.420546070629383 -8.614168242682315 0 0 0
1059 209 2 0.5564 8.653233209822826 -5.1581497395557765 -6.18985849421112 0 0 0
621 63 2 0.5564 6.167455218442343 -6.274518394335786 -8.192479779953146 0 0 0
484 18 1 -1.1128 9.142222181741392 -6.938754802448891 -9.134826465313107 0 0 0
486 18 2 0.5564 9.106327518907786 -6.299503537580765 -8.423277942814522 0 0 0
485 18 2 0.5564 9.72005145813857 -7.628672087399702 -8.80869867423782 0 0 0
985 185 1 -1.1128 5.962051777956049 -8.551307788882058 -5.647986319496512 0 0 0
987 185 2 0.5564 5.296011339299116 -9.214788608215986 -5.467943960536737 0 0 0
980 183 2 0.5564 5.270121952905388 -7.0801141023837815 -6.161567500531344 0 0 0
481 17 1 -1.1128 4.982260671825652 11.562595284447651 -6.211393204759806 0 -1 0
482 17 2 0.5564 5.4305852351838775 11.916855205851933 -6.979336501792181 0 -1 0
490 20 1 -1.1128 11.151502975296818 -11.356707745332955 -7.7894591198765415 0 0 0
433 1 1 -1.1128 8.160321149924497 -9.159408641375737 -4.198048380870313 -1 0 0
435 1 2 0.5564 8.711263572960357 -8.378763345935841 -4.1407133363681785 -1 0 0
620 63 2 0.5564 7.365524359480341 -6.160322200923965 -9.110894203281322 0 0 0
619 63 1 -1.1128 6.408914864787374 -6.1269427836671975 -9.10689252070835 0 0 0
491 20 2 0.5564 10.675183997002884 -12.017780236064171 -8.291789006395994 0 0 0
981 183 2 0.5564 5.121576445162893 -5.612812794128594 -5.819724929965603 0 0 0
705 91 2 0.5564 6.452563041689706 -4.199466498709327 -9.117842636596516 0 0 0
554 41 2 0.5564 9.832362058812528 -4.311800556601144 -9.85634838633152 0 0 0
492 20 2 0.5564 12.007697103028937 -11.751565466714933 -7.624380602407578 0 0 0
436 2 1 -1.1128 10.779524890933736 -10.759904713653036 -5.123552526775127 -1 0 0
438 2 2 0.5564 9.843623196208572 -10.57765778798905 -5.03925544385152 -1 0 0
437 2 2 0.5564 10.892332622768098 -11.01790645409734 -6.03839753105892 -1 0 0
557 42 2 0.5564 -10.930832115799864 -4.435489182368491 -9.070232271498568 1 0 0
678 82 2 0.5564 -3.807818908197855 -3.912626161899765 -7.776654691027205 0 0 0
556 42 1 -1.1128 -11.300291489959717 -3.642442647766071 -9.45857339927217 1 0 0
558 42 2 0.5564 -10.55865674942587 -3.2189520363245805 -9.89085280900275 1 0 0
1012 194 1 -1.1128 -7.0931339473546915 -3.4562446440871275 -8.800302903625695 0 0 0
1539 369 2 0.5564 -4.916128207719596 -3.5751514468878156 -6.002082195671485 0 0 0
580 50 1 -1.1128 -9.867783950618563 2.2109727033594115 -8.57798225244816 0 0 0
581 50 2 0.5564 -9.682648055911896 2.1719372115170428 -7.639668305028516 0 0 0
582 50 2 0.5564 -10.045366430323883 1.3035448066896018 -8.825512130345453 0 0 0
600 56 2 0.5564 -9.23084539014137 -3.3486525638891247 -6.461507552824312 0 0 0
667 79 1 -1.1128 -7.855493070345885 -0.8864526686603997 -8.991392791725104 0 0 0
668 79 2 0.5564 -7.6066378834535 0.03585312112567303 -9.051849819777502 0 0 0
669 79 2 0.5564 -8.812522047943698 -0.8783563952595537 -9.00757991244342 0 0 0
1013 194 2 0.5564 -7.452592333612919 -2.571084854327283 -8.859579822816709 0 0 0
1179 249 2 0.5564 -5.351338810422002 1.7636118735102737 -9.563450996008447 0 0 0
1014 194 2 0.5564 -6.173814308577871 -3.3268231251334504 -8.567207317357033 0 0 0
1537 369 1 -1.1128 -5.2196976860427595 -3.5301505009826735 -5.095411172934451 0 0 0
1538 369 2 0.5564 -6.128272645450354 -3.2361415098566315 -5.160848974833091 0 0 0
1177 249 1 -1.1128 -5.260490674187961 0.8110598856853418 -9.588414965489548 0 0 0
676 82 1 -1.1128 -4.528837519542394 -3.2832802736553766 -7.793620903951748 0 0 0
677 82 2 0.5564 -4.202147216992992 -2.558362740999331 -8.326537431696678 0 0 0
1178 249 2 0.5564 -5.904071034171548 0.525515704957601 -10.23687524233998 0 0 0
2397 0 4 -1 -10.743937828834206 -0.6446876376326364 -8.909582013209835 1 0 0
715 95 1 -1.1128 -9.348079844865277 1.6067699968863403 -5.938952717360539 1 0 0
608 59 2 0.5564 -4.510177124564629 -4.900759104166418 -3.760000078686203 0 0 0
687 85 2 0.5564 -3.9496390030724786 -0.5509849512718956 -9.522805898234958 0 0 0
598 56 1 -1.1128 -9.762910504991796 -2.5571632057766838 -6.379756703292538 0 0 0
716 95 2 0.5564 -9.148738726840792 0.8261298227539681 -5.422139469077735 1 0 0
1088 219 2 0.5564 -9.589363783280184 -1.1432892886139527 -5.157842207092306 0 0 0
740 103 2 0.5564 -5.947667081148341 -1.3028030554889873 -6.308832970923023 0 0 0
739 103 1 -1.1128 -6.850807796583008 -1.0555677764407787 -6.1102288755551735 0 0 0
1373 314 2 0.5564 -8.20008662864173 -5.484412129558907 -4.926905890595933 0 0 0
599 56 2 0.5564 -10.088817484483771 -2.394585951092758 -7.2649601691961285 0 0 0
685 85 1 -1.1128 -3.334702763367503 -1.1474049451523183 -9.095759612697991 0 0 0
741 103 2 0.5564 -7.242748750054265 -0.8722930184548305 -6.964058264433548 0 0 0
717 95 2 0.5564 -9.015120007036902 2.334096090002908 -5.413247109472355 1 0 0
686 85 2 0.5564 -2.472179689485236 -0.7761021843974512 -9.28128642695802 0 0 0
745 105 1 -1.1128 -4.8876732423424425 3.820900754882863 -9.21101591049429 0 0 0
1032 200 2 0.5564 -4.980858025998343 2.865264408991841 -5.490734979515989 0 0 0
1223 264 2 0.5564 11.82932598394598 0.8415717188203526 -5.902097654014518 0 0 0
659 76 2 0.5564 -11.708973849006757 2.1850309643872126 -9.22065340243311 0 0 0
1030 200 1 -1.1128 -5.274867197474544 3.3501348539252933 -4.719572773320553 0 0 0
532 34 1 -1.1128 2.5408667622254315 -3.148378532969425 -8.403905932738661 0 0 0
534 34 2 0.5564 1.7667882807101545 -3.4584547267375005 -8.873892209154585 0 0 0
533 34 2 0.5564 2.909260519139025 -2.4697727722679117 -8.969602057248103 0 0 0
735 101 2 0.5564 -4.227112094347636 3.2697607063089835 -7.5578183750349135 0 0 0
733 101 1 -1.1128 -3.954431084097253 2.6419340211176734 -6.888706564384091 0 0 0
524 31 2 0.5564 -0.5648454242437243 -4.664282257171536 -5.817912257577611 0 0 0
523 31 1 -1.1128 -1.2107028577122296 -3.9680980989022276 -5.938028020339012 0 0 0
654 74 2 0.5564 3.1524728821905184 -1.974271854294411 -5.787985779595332 0 0 0
652 74 1 -1.1128 2.270471930474419 -2.344059967124761 -5.748451236008337 0 0 0
525 31 2 0.5564 -2.022557041126792 -4.4281086360355175 -6.151370418145398 0 0 0
653 74 2 0.5564 2.141663968591296 -2.7497054200370603 -6.605826441111889 0 0 0
1117 229 1 -1.1128 -0.43879299083981715 -3.4096899471308775 -9.065550676042175 0 0 0
1180 250 1 -1.1128 -0.6065102859887563 -0.4854975948536036 -8.977500819676447 0 0 0
1181 250 2 0.5564 -0.5404840073005909 -0.6609017807165913 -8.038828455561273 0 0 0
786 118 2 0.5564 -0.5182913844736909 2.700950372885196 -8.054810342314417 0 0 0
1118 229 2 0.5564 -1.2158484770229294 -3.8175108327315863 -9.447779404835385 0 0 0
1182 250 2 0.5564 -0.7435424190880505 0.4600412966023555 -9.035898739587575 0 0 0
1185 251 2 0.5564 1.6504965945201062 -0.7357209437961432 -4.30561264791034 0 0 0
1119 229 2 0.5564 -0.6956288580082086 -2.500357323353939 -8.912640627937996 0 0 0
785 118 2 0.5564 0.6969719887542905 2.1815875160714597 -8.793250256570552 0 0 0
784 118 1 -1.1128 -0.24950728062081054 2.2956543091676016 -8.879263005361574 0 0 0
616 62 1 -1.1128 2.65613064596601 0.8473976564486382 -8.195341311318437 0 0 0
734 101 2 0.5564 -3.0277738321399017 2.8330311799515617 -6.743723602761275 0 0 0
1026 198 2 0.5564 -0.34087872580710893 -2.211329729704517 -6.287497519045002 0 0 0
1025 198 2 0.5564 0.6623191164989861 -1.0991337395475484 -6.507746464076434 0 0 0
597 55 2 0.5564 -3.384651964238991 -0.4484320937567407 -7.544185663816306 0 0 0
595 55 1 -1.1128 -3.3893562354766935 -0.11960193398505331 -6.6452526203862465 0 0 0
596 55 2 0.5564 -3.7953225663221644 0.7449640292996876 -6.708093096558547 0 0 0
1024 198 1 -1.1128 -0.2682635960211482 -1.2589755961831979 -6.350589654585463 0 0 0
617 62 2 0.5564 3.302951864727574 1.4832402905181101 -8.501214428358278 0 0 0
1183 251 1 -1.1128 1.7822448750784974 -0.05073314986598942 -3.6501234608638864 0 0 0
2385 0 3 1 -1.9279818836549631 -0.7028858725207855 -4.541414731401455 0 0 0
618 62 2 0.5564 2.6133886236096058 0.1938152571561299 -8.893363583185257 0 0 0
689 86 2 0.5564 -0.6925653697861879 2.7550746678545956 -5.658348069492092 0 0 0
1184 251 2 0.5564 0.9813486404685838 0.4722983273202245 -3.685269335727916 0 0 0
691 87 1 -1.1128 4.586652688076018 -1.1483963667646624 -6.473879619772902 0 0 0
824 131 2 0.5564 -1.2701794007143834 3.5527429925145992 -9.489307760430341 0 0 0
769 113 1 -1.1128 1.9941556348363374 4.496592287024591 -8.253853481027996 0 0 0
859 143 1 -1.1128 3.5462441936307147 4.483297696513157 -5.875676463899639 0 0 0
861 143 2 0.5564 3.082863790986331 4.415499568496451 -6.710490187562944 0 0 0
1094 221 2 0.5564 2.2890053904034517 -3.894520712782317 -4.153701053514429 0 0 0
989 186 2 0.5564 11.154562407545367 -5.511558996521308 -5.320248633904721 0 0 0
555 41 2 0.5564 8.705141543535932 -3.4764675270789156 -9.287588320912475 0 0 0
990 186 2 0.5564 11.332069152211464 -4.152066504447055 -5.9622508330527 0 0 0
988 186 1 -1.1128 11.703156875072564 -5.034190034293267 -5.942659174287859 0 0 0
692 87 2 0.5564 4.129949173777213 -0.3205106819845029 -6.623074519851022 0 0 0
1222 264 1 -1.1128 11.436972903581353 0.7445239794524702 -6.769780192765226 0 0 0
1224 264 2 0.5564 -12.058939580625202 0.6038985264914322 -7.355263356120654 1 0 0
1142 237 2 0.5564 11.159389487200048 -1.4598171392874317 -6.283342437039737 0 0 0
1141 237 1 -1.1128 10.921785042092338 -2.3427459482136554 -6.566561079542384 0 0 0
1143 237 2 0.5564 9.965099075534566 -2.335665417530193 -6.5971186217947055 0 0 0
553 41 1 -1.1128 9.641828994623086 -3.6490922560140806 -9.192460755531076 0 0 0
641 70 2 0.5564 9.82243649161666 0.35340132763864207 -9.406437250851559 0 0 0
703 91 1 -1.1128 6.773529515872695 -3.297858300764674 -9.135594932233834 0 0 0
704 91 2 0.5564 6.082851956519426 -2.805941173096852 -9.579682671845408 0 0 0
660 76 2 0.5564 11.403984838838861 1.6936753250268008 -8.33733984247283 -1 0 0
658 76 1 -1.1128 11.578988022100033 2.209500053714148 -9.124442537886749 -1 0 0
2386 0 3 1 11.46392173025699 -2.0792946170516564 -8.683586865404596 0 0 0
1071 213 2 0.5564 9.623969583532457 1.69658048076973 -6.744084804625604 0 0 0
1069 213 1 -1.1128 8.780620881150572 2.136468165707454 -6.851293406049779 0 0 0
627 65 2 0.5564 4.665115806798212 -1.6532951368424895 -8.306301719384669 0 0 0
625 65 1 -1.1128 4.531765721078112 -1.4366884559725923 -9.229086217350476 0 0 0
626 65 2 0.5564 5.021822873587819 -0.6246555285502492 -9.358231426018456 0 0 0
1070 213 2 0.5564 8.17419156780329 1.6270558489938374 -6.313729953942431 0 0 0
693 87 2 0.5564 5.376252471202097 -0.9033505770389612 -5.991472450724534 0 0 0
640 70 1 -1.1128 9.88734636862147 -0.49748444580671786 -8.972833711914868 0 0 0
642 70 2 0.5564 8.995610870568937 -0.8449008243086599 -8.991314839039324 0 0 0
646 72 1 -1.1128 6.287685411713903 0.7965477535888263 -9.164050781752431 0 0 0
647 72 2 0.5564 7.1350152332690095 1.1713189541152462 -9.40448925753678 0 0 0
648 72 2 0.5564 6.0245074472349875 1.2807372173060136 -8.381407915369063 0 0 0
701 90 2 0.5564 7.161221571984235 3.3795041325746333 -9.654224242693491 0 0 0
702 90 2 0.5564 5.973293202952061 3.371907848213421 -8.715787260812448 0 0 0
712 94 1 -1.1128 8.775098673087298 2.1611927641234723 -9.611391581969313 0 0 0
713 94 2 0.5564 8.668196651524507 2.2389957145961485 -8.663367009686484 0 0 0
714 94 2 0.5564 9.653804307512942 2.5000947057786043 -9.782429177546765 0 0 0
1134 234 2 0.5564 7.512641168133064 -1.3033864157372028 -6.421905718036328 0 0 0
2406 0 4 -1 6.85225990382575 0.4846265461947876 -5.204398420978505 0 0 0
605 58 2 0.5564 5.847693288530468 2.024926706232265 -6.425169823834949 0 0 0
604 58 1 -1.1128 5.348870835416424 2.446327732824917 -7.1250478244222935 0 0 0
606 58 2 0.5564 4.62378135710703 2.8801336868561527 -6.675281719580472 0 0 0
1133 234 2 0.5564 7.761470358692964 -2.5478971658031266 -7.247237359053614 0 0 0
1132 234 1 -1.1128 8.21123087156044 -1.882683081499846 -6.726240522280183 0 0 0
1061 210 2 0.5564 5.4899051534101035 -1.3816670802660778 -3.581885620525476 0 0 0
977 182 2 0.5564 8.92329161409349 -0.2504440563351056 -4.510945784873069 0 0 0
448 6 1 -1.1128 -5.83102049160377 -11.610511014719167 -9.157076319597879 0 0 0
746 105 2 0.5564 -4.058715441799579 4.24122909548027 -9.439893524241153 0 0 0
450 6 2 0.5564 -6.355694007703069 -11.879000302582721 -8.402846062568141 0 0 0
926 165 2 0.5564 -8.006893587574268 11.197843906701529 -4.513274197900272 1 -1 0