LAMMPS data file via write_data, version 29 Aug 2024, timestep = 12000, units = real

1680 atoms
5 atom types
812 bonds
1 bond types
406 angles
1 angle types

-12.120000000000001 12.120000000000001 xlo xhi
-12.120000000000001 12.120000000000001 ylo yhi
-20.2 20.2 zlo zhi

Atom Type Labels

1 O
2 H
3 Na+
4 Cl-
5 WALL

Bond Type Labels

1 O-H

Angle Type Labels

1 H-O-H

Masses

1 15.9994
2 1.008
3 22.99
4 35.453
5 26.9815

Atoms # full

1 0 5 0 -12.120000000000001 -12.120000000000001 -16.16 0 0 0
2 0 5 0 -10.1 -10.1 -16.16 0 0 0
3 0 5 0 -10.1 -12.120000000000001 -14.14 0 0 0
4 0 5 0 -12.120000000000001 -10.1 -14.14 0 0 0
5 0 5 0 -8.08 -12.120000000000001 -16.16 0 0 0
6 0 5 0 -6.0600000000000005 -10.1 -16.16 0 0 0
7 0 5 0 -6.0600000000000005 -12.120000000000001 -14.14 0 0 0
8 0 5 0 -8.08 -10.1 -14.14 0 0 0
25 0 5 0 -12.120000000000001 -8.08 -16.16 0 0 0
26 0 5 0 -10.1 -6.0600000000000005 -16.16 0 0 0
27 0 5 0 -10.1 -8.08 -14.14 0 0 0
28 0 5 0 -12.120000000000001 -6.0600000000000005 -14.14 0 0 0
29 0 5 0 -8.08 -8.08 -16.16 0 0 0
30 0 5 0 -6.0600000000000005 -6.0600000000000005 -16.16 0 0 0
31 0 5 0 -6.0600000000000005 -8.08 -14.14 0 0 0
32 0 5 0 -8.08 -6.0600000000000005 -14.14 0 0 0
145 0 5 0 -12.120000000000001 -12.120000000000001 -12.120000000000001 0 0 0
146 0 5 0 -10.1 -10.1 -12.120000000000001 0 0 0
147 0 5 0 -8.08 -12.120000000000001 -12.120000000000001 0 0 0
148 0 5 0 -6.0600000000000005 -10.1 -12.120000000000001 0 0 0
157 0 5 0 -12.120000000000001 -8.08 -12.120000000000001 0 0 0
158 0 5 0 -10.1 -6.0600000000000005 -12.120000000000001 0 0 0
159 0 5 0 -8.08 -8.08 -12.120000000000001 0 0 0
160 0 5 0 -6.0600000000000005 -6.0600000000000005 -12.120000000000001 0 0 0
9 0 5 0 -4.04 -12.120000000000001 -16.16 0 0 0
10 0 5 0 -2.02 -10.1 -16.16 0 0 0
11 0 5 0 -2.02 -12.120000000000001 -14.14 0 0 0
12 0 5 0 -4.04 -10.1 -14.14 0 0 0
13 0 5 0 0 -12.120000000000001 -16.16 0 0 0
14 0 5 0 2.02 -10.1 -16.16 0 0 0
15 0 5 0 2.02 -12.120000000000001 -14.14 0 0 0
16 0 5 0 0 -10.1 -14.14 0 0 0
17 0 5 0 4.04 -12.120000000000001 -16.16 0 0 0
20 0 5 0 4.04 -10.1 -14.14 0 0 0
33 0 5 0 -4.04 -8.08 -16.16 0 0 0
34 0 5 0 -2.02 -6.0600000000000005 -16.16 0 0 0
35 0 5 0 -2.02 -8.08 -14.14 0 0 0
36 0 5 0 -4.04 -6.0600000000000005 -14.14 0 0 0
37 0 5 0 0 -8.08 -16.16 0 0 0
38 0 5 0 2.02 -6.0600000000000005 -16.16 0 0 0
39 0 5 0 2.02 -8.08 -14.14 0 0 0
40 0 5 0 0 -6.0600000000000005 -14.14 0 0 0
41 0 5 0 4.04 -8.08 -16.16 0 0 0
44 0 5 0 4.04 -6.0600000000000005 -14.14 0 0 0
149 0 5 0 -4.04 -12.120000000000001 -12.120000000000001 0 0 0
150 0 5 0 -2.02 -10.1 -12.120000000000001 0 0 0
151 0 5 0 0 -12.120000000000001 -12.120000000000001 0 0 0
152 0 5 0 2.02 -10.1 -12.120000000000001 0 0 0
153 0 5 0 4.04 -12.120000000000001 -12.120000000000001 0 0 0
161 0 5 0 -4.04 -8.08 -12.120000000000001 0 0 0
162 0 5 0 -2.02 -6.0600000000000005 -12.120000000000001 0 0 0
163 0 5 0 0 -8.08 -12.120000000000001 0 0 0
164 0 5 0 2.02 -6.0600000000000005 -12.120000000000001 0 0 0
165 0 5 0 4.04 -8.08 -12.120000000000001 0 0 0
18 0 5 0 6.0600000000000005 -10.1 -16.16 0 0 0
19 0 5 0 6.0600000000000005 -12.120000000000001 -14.14 0 0 0
21 0 5 0 8.08 -12.120000000000001 -16.16 0 0 0
22 0 5 0 10.1 -10.1 -16.16 0 0 0
23 0 5 0 10.1 -12.120000000000001 -14.14 0 0 0
24 0 5 0 8.08 -10.1 -14.14 0 0 0
42 0 5 0 6.0600000000000005 -6.0600000000000005 -16.16 0 0 0
43 0 5 0 6.0600000000000005 -8.08 -14.14 0 0 0
45 0 5 0 8.08 -8.08 -16.16 0 0 0
46 0 5 0 10.1 -6.0600000000000005 -16.16 0 0 0
47 0 5 0 10.1 -8.08 -14.14 0 0 0
48 0 5 0 8.08 -6.0600000000000005 -14.14 0 0 0
154 0 5 0 6.0600000000000005 -10.1 -12.120000000000001 0 0 0
155 0 5 0 8.08 -12.120000000000001 -12.120000000000001 0 0 0
156 0 5 0 10.1 -10.1 -12.120000000000001 0 0 0
166 0 5 0 6.0600000000000005 -6.0600000000000005 -12.120000000000001 0 0 0
167 0 5 0 8.08 -8.08 -12.120000000000001 0 0 0
168 0 5 0 10.1 -6.0600000000000005 -12.120000000000001 0 0 0
49 0 5 0 -12.120000000000001 -4.04 -16.16 0 0 0
50 0 5 0 -10.1 -2.02 -16.16 0 0 0
51 0 5 0 -10.1 -4.04 -14.14 0 0 0
52 0 5 0 -12.120000000000001 -2.02 -14.14 0 0 0
53 0 5 0 -8.08 -4.04 -16.16 0 0 0
54 0 5 0 -6.0600000000000005 -2.02 -16.16 0 0 0
55 0 5 0 -6.0600000000000005 -4.04 -14.14 0 0 0
56 0 5 0 -8.08 -2.02 -14.14 0 0 0
73 0 5 0 -12.120000000000001 0 -16.16 0 0 0
74 0 5 0 -10.1 2.02 -16.16 0 0 0
75 0 5 0 -10.1 0 -14.14 0 0 0
76 0 5 0 -12.120000000000001 2.02 -14.14 0 0 0
77 0 5 0 -8.08 0 -16.16 0 0 0
78 0 5 0 -6.0600000000000005 2.02 -16.16 0 0 0
79 0 5 0 -6.0600000000000005 0 -14.14 0 0 0
80 0 5 0 -8.08 2.02 -14.14 0 0 0
97 0 5 0 -12.120000000000001 4.04 -16.16 0 0 0
99 0 5 0 -10.1 4.04 -14.14 0 0 0
101 0 5 0 -8.08 4.04 -16.16 0 0 0
103 0 5 0 -6.0600000000000005 4.04 -14.14 0 0 0
169 0 5 0 -12.120000000000001 -4.04 -12.120000000000001 0 0 0
170 0 5 0 -10.1 -2.02 -12.120000000000001 0 0 0
171 0 5 0 -8.08 -4.04 -12.120000000000001 0 0 0
172 0 5 0 -6.0600000000000005 -2.02 -12.120000000000001 0 0 0
181 0 5 0 -12.120000000000001 0 -12.120000000000001 0 0 0
182 0 5 0 -10.1 2.02 -12.120000000000001 0 0 0
183 0 5 0 -8.08 0 -12.120000000000001 0 0 0
184 0 5 0 -6.0600000000000005 2.02 -12.120000000000001 0 0 0
193 0 5 0 -12.120000000000001 4.04 -12.120000000000001 0 0 0
195 0 5 0 -8.08 4.04 -12.120000000000001 0 0 0
57 0 5 0 -4.04 -4.04 -16.16 0 0 0
58 0 5 0 -2.02 -2.02 -16.16 0 0 0
59 0 5 0 -2.02 -4.04 -14.14 0 0 0
60 0 5 0 -4.04 -2.02 -14.14 0 0 0
61 0 5 0 0 -4.04 -16.16 0 0 0
62 0 5 0 2.02 -2.02 -16.16 0 0 0
63 0 5 0 2.02 -4.04 -14.14 0 0 0
64 0 5 0 0 -2.02 -14.14 0 0 0
65 0 5 0 4.04 -4.04 -16.16 0 0 0
68 0 5 0 4.04 -2.02 -14.14 0 0 0
81 0 5 0 -4.04 0 -16.16 0 0 0
82 0 5 0 -2.02 2.02 -16.16 0 0 0
83 0 5 0 -2.02 0 -14.14 0 0 0
84 0 5 0 -4.04 2.02 -14.14 0 0 0
85 0 5 0 0 0 -16.16 0 0 0
86 0 5 0 2.02 2.02 -16.16 0 0 0
87 0 5 0 2.02 0 -14.14 0 0 0
88 0 5 0 0 2.02 -14.14 0 0 0
89 0 5 0 4.04 0 -16.16 0 0 0
92 0 5 0 4.04 2.02 -14.14 0 0 0
105 0 5 0 -4.04 4.04 -16.16 0 0 0
107 0 5 0 -2.02 4.04 -14.14 0 0 0
109 0 5 0 0 4.04 -16.16 0 0 0
111 0 5 0 2.02 4.04 -14.14 0 0 0
113 0 5 0 4.04 4.04 -16.16 0 0 0
173 0 5 0 -4.04 -4.04 -12.120000000000001 0 0 0
174 0 5 0 -2.02 -2.02 -12.120000000000001 0 0 0
175 0 5 0 0 -4.04 -12.120000000000001 0 0 0
176 0 5 0 2.02 -2.02 -12.120000000000001 0 0 0
177 0 5 0 4.04 -4.04 -12.120000000000001 0 0 0
185 0 5 0 -4.04 0 -12.120000000000001 0 0 0
186 0 5 0 -2.02 2.02 -12.120000000000001 0 0 0
187 0 5 0 0 0 -12.120000000000001 0 0 0
188 0 5 0 2.02 2.02 -12.120000000000001 0 0 0
189 0 5 0 4.04 0 -12.120000000000001 0 0 0
197 0 5 0 -4.04 4.04 -12.120000000000001 0 0 0
199 0 5 0 0 4.04 -12.120000000000001 0 0 0
201 0 5 0 4.04 4.04 -12.120000000000001 0 0 0
66 0 5 0 6.0600000000000005 -2.02 -16.16 0 0 0
67 0 5 0 6.0600000000000005 -4.04 -14.14 0 0 0
69 0 5 0 8.08 -4.04 -16.16 0 0 0
70 0 5 0 10.1 -2.02 -16.16 0 0 0
71 0 5 0 10.1 -4.04 -14.14 0 0 0
72 0 5 0 8.08 -2.02 -14.14 0 0 0
90 0 5 0 6.0600000000000005 2.02 -16.16 0 0 0
91 0 5 0 6.0600000000000005 0 -14.14 0 0 0
93 0 5 0 8.08 0 -16.16 0 0 0
94 0 5 0 10.1 2.02 -16.16 0 0 0
95 0 5 0 10.1 0 -14.14 0 0 0
96 0 5 0 8.08 2.02 -14.14 0 0 0
115 0 5 0 6.0600000000000005 4.04 -14.14 0 0 0
117 0 5 0 8.08 4.04 -16.16 0 0 0
119 0 5 0 10.1 4.04 -14.14 0 0 0
178 0 5 0 6.0600000000000005 -2.02 -12.120000000000001 0 0 0
179 0 5 0 8.08 -4.04 -12.120000000000001 0 0 0
180 0 5 0 10.1 -2.02 -12.120000000000001 0 0 0
190 0 5 0 6.0600000000000005 2.02 -12.120000000000001 0 0 0
191 0 5 0 8.08 0 -12.120000000000001 0 0 0
192 0 5 0 10.1 2.02 -12.120000000000001 0 0 0
203 0 5 0 8.08 4.04 -12.120000000000001 0 0 0
98 0 5 0 -10.1 6.0600000000000005 -16.16 0 0 0
100 0 5 0 -12.120000000000001 6.0600000000000005 -14.14 0 0 0
102 0 5 0 -6.0600000000000005 6.0600000000000005 -16.16 0 0 0
104 0 5 0 -8.08 6.0600000000000005 -14.14 0 0 0
121 0 5 0 -12.120000000000001 8.08 -16.16 0 0 0
122 0 5 0 -10.1 10.1 -16.16 0 0 0
123 0 5 0 -10.1 8.08 -14.14 0 0 0
124 0 5 0 -12.120000000000001 10.1 -14.14 0 0 0
125 0 5 0 -8.08 8.08 -16.16 0 0 0
126 0 5 0 -6.0600000000000005 10.1 -16.16 0 0 0
127 0 5 0 -6.0600000000000005 8.08 -14.14 0 0 0
128 0 5 0 -8.08 10.1 -14.14 0 0 0
194 0 5 0 -10.1 6.0600000000000005 -12.120000000000001 0 0 0
196 0 5 0 -6.0600000000000005 6.0600000000000005 -12.120000000000001 0 0 0
205 0 5 0 -12.120000000000001 8.08 -12.120000000000001 0 0 0
206 0 5 0 -10.1 10.1 -12.120000000000001 0 0 0
207 0 5 0 -8.08 8.08 -12.120000000000001 0 0 0
208 0 5 0 -6.0600000000000005 10.1 -12.120000000000001 0 0 0
106 0 5 0 -2.02 6.0600000000000005 -16.16 0 0 0
108 0 5 0 -4.04 6.0600000000000005 -14.14 0 0 0
110 0 5 0 2.02 6.0600000000000005 -16.16 0 0 0
112 0 5 0 0 6.0600000000000005 -14.14 0 0 0
116 0 5 0 4.04 6.0600000000000005 -14.14 0 0 0
129 0 5 0 -4.04 8.08 -16.16 0 0 0
130 0 5 0 -2.02 10.1 -16.16 0 0 0
131 0 5 0 -2.02 8.08 -14.14 0 0 0
132 0 5 0 -4.04 10.1 -14.14 0 0 0
133 0 5 0 0 8.08 -16.16 0 0 0
134 0 5 0 2.02 10.1 -16.16 0 0 0
135 0 5 0 2.02 8.08 -14.14 0 0 0
136 0 5 0 0 10.1 -14.14 0 0 0
137 0 5 0 4.04 8.08 -16.16 0 0 0
140 0 5 0 4.04 10.1 -14.14 0 0 0
198 0 5 0 -2.02 6.0600000000000005 -12.120000000000001 0 0 0
200 0 5 0 2.02 6.0600000000000005 -12.120000000000001 0 0 0
209 0 5 0 -4.04 8.08 -12.120000000000001 0 0 0
210 0 5 0 -2.02 10.1 -12.120000000000001 0 0 0
211 0 5 0 0 8.08 -12.120000000000001 0 0 0
212 0 5 0 2.02 10.1 -12.120000000000001 0 0 0
213 0 5 0 4.04 8.08 -12.120000000000001 0 0 0
114 0 5 0 6.0600000000000005 6.0600000000000005 -16.16 0 0 0
118 0 5 0 10.1 6.0600000000000005 -16.16 0 0 0
120 0 5 0 8.08 6.0600000000000005 -14.14 0 0 0
138 0 5 0 6.0600000000000005 10.1 -16.16 0 0 0
139 0 5 0 6.0600000000000005 8.08 -14.14 0 0 0
141 0 5 0 8.08 8.08 -16.16 0 0 0
142 0 5 0 10.1 10.1 -16.16 0 0 0
143 0 5 0 10.1 8.08 -14.14 0 0 0
144 0 5 0 8.08 10.1 -14.14 0 0 0
202 0 5 0 6.0600000000000005 6.0600000000000005 -12.120000000000001 0 0 0
204 0 5 0 10.1 6.0600000000000005 -12.120000000000001 0 0 0
214 0 5 0 6.0600000000000005 10.1 -12.120000000000001 0 0 0
215 0 5 0 8.08 8.08 -12.120000000000001 0 0 0
216 0 5 0 10.1 10.1 -12.120000000000001 0 0 0
448 6 1 -1.1128 -7.554708482874688 -7.909861170861546 -8.383699866422239 0 0 0
449 6 2 0.5564 -8.449813548421155 -8.022994947187929 -8.703417823487651 0 0 0
450 6 2 0.5564 -7.29306180817652 -8.78218882131779 -8.089051959669096 0 0 0
454 8 1 -1.1128 -7.74620328910973 -5.260841977325119 -7.53321158079726 0 0 0
455 8 2 0.5564 -7.557412013392761 -6.1885321962071815 -7.674564506672171 0 0 0
456 8 2 0.5564 -7.1652450004022645 -5.004105270962972 -6.817107104025041 0 0 0
496 22 1 -1.1128 -6.901967895439863 -10.263980264653622 -7.311041362425664 1 0 0
497 22 2 0.5564 -7.768640937323887 -10.477341778380458 -6.965228426880966 1 0 0
498 22 2 0.5564 -6.720667765904094 -10.955477372394506 -7.94758977072182 1 0 0
598 56 1 -1.1128 -5.139343439568106 -7.688253123502303 -9.627633927573811 0 0 0
599 56 2 0.5564 -5.035069439713068 -6.740991398041587 -9.717382479171219 0 0 0
600 56 2 0.5564 -6.031868706110135 -7.801546996837056 -9.300835350839197 0 0 0
604 58 1 -1.1128 -9.49359118655964 -4.943378529214294 -5.466762737526374 0 0 0
606 58 2 0.5564 -9.115743294394088 -5.175685875645632 -6.314994601011297 0 0 0
856 142 1 -1.1128 -10.002000319524138 -8.139315083055655 -9.592922055685856 1 1 0
857 142 2 0.5564 -10.185786547346394 -8.362827571779992 -10.505334687785636 1 1 0
858 142 2 0.5564 -10.635503406884407 -7.453588431638544 -9.38153090770584 1 1 0
864 144 2 0.5564 -10.374954515209483 -9.474908407620033 -8.587150310819226 1 1 0
882 150 2 0.5564 -4.535477715013537 -4.838878958346183 -6.183337602419252 0 0 0
458 9 2 0.5564 -4.413892269834474 -9.189574189861784 -9.720672029438514 0 0 0
950 173 2 0.5564 -9.69284587191542 -8.243853224505465 -5.754996041167037 0 0 0
949 173 1 -1.1128 -10.436444068432893 -8.806046050987101 -5.537664127908088 0 0 0
951 173 2 0.5564 -10.849492331226168 -8.378340210253477 -4.787536512272927 0 0 0
459 9 2 0.5564 -4.532783429645898 -10.680641596894056 -9.9540776591797 0 0 0
457 9 1 -1.1128 -3.9215824029704063 -10.007772033381576 -9.654224798067618 0 0 0
605 58 2 0.5564 -9.639253840677402 -3.998798777423751 -5.51952679921083 0 0 0
652 74 1 -1.1128 -11.906385002408507 -5.933982549335601 -9.254469355665583 0 0 0
583 51 1 -1.1128 -6.601741995474679 -4.0403128412839076 -9.591868162401573 0 0 0
654 74 2 0.5564 -11.444534488713073 -5.099098161184788 -9.177696397328154 0 0 0
1245 271 2 0.5564 -5.294133941733122 -10.726791726831056 -5.597191239024948 0 1 0
952 174 1 -1.1128 -6.427397078964674 -4.418155461858489 -5.366293933361693 0 0 0
462 10 2 0.5564 -4.013610665630656 -5.03631471419632 -8.12691217112989 0 0 0
2385 0 3 1 -9.587022435994607 -10.366219474506119 -4.054014671252322 0 1 0
1320 296 2 0.5564 -6.129223959143309 -8.09278932185867 -5.745211246520498 0 0 0
1318 296 1 -1.1128 -6.783225166139926 -8.317622027926275 -5.08342233208856 0 0 0
863 144 2 0.5564 -10.41152417843556 -9.706962900590646 -7.091587315341711 1 1 0
862 144 1 -1.1128 -10.40930986461295 -10.169612664752448 -7.9295504392740135 1 1 0
584 51 2 0.5564 -5.810977354499147 -4.555301133175685 -9.75221219882246 0 0 0
585 51 2 0.5564 -7.041913035199298 -4.49394317700781 -8.87304907651762 0 0 0
460 10 1 -1.1128 -4.125233960474113 -5.253571407509679 -9.052423750787385 0 0 0
959 176 2 0.5564 -10.58416731624588 -5.093572923375567 -3.9286330085321066 0 0 0
880 150 1 -1.1128 -3.6071287801188494 -4.798818136878382 -6.413109819537217 0 0 0
527 32 2 0.5564 -8.533803308478188 -2.093798136771271 -6.646133677127306 0 0 0
526 32 1 -1.1128 -9.47199519112116 -2.270404503690687 -6.576576507292646 0 0 0
1319 296 2 0.5564 -6.678326520626949 -9.26005045200973 -4.952820530330529 0 0 0
953 174 2 0.5564 -6.989949137154934 -4.5199946924712195 -4.598571847715536 0 0 0
943 171 1 -1.1128 -7.65753901243858 -11.179326931698336 -3.1976773734024047 0 0 0
945 171 2 0.5564 -6.755180182360838 -10.902525159052477 -3.3569306409948902 0 0 0
965 178 2 0.5564 -6.070212082816328 -7.548859138513977 -3.6968672130648415 0 0 0
891 153 2 0.5564 -4.648228469852623 -7.79792220055918 -7.5523973850315 0 0 0
461 10 2 0.5564 -3.3624607290679025 -4.867760930032382 -9.483189649907692 0 0 0
525 31 2 0.5564 -2.7146248158139614 -8.631393314698892 -9.300750264993336 0 0 0
523 31 1 -1.1128 -2.222578700609071 -7.811095548190664 -9.26561344937452 0 0 0
524 31 2 0.5564 -2.8934895577940267 -7.131343293500992 -9.201992950344874 0 0 0
881 150 2 0.5564 -3.1614295537181065 -5.237839426629617 -5.68864835951931 0 0 0
889 153 1 -1.1128 -4.559776721513196 -8.041416592965021 -6.630920981033541 0 0 0
890 153 2 0.5564 -3.661626817374458 -8.36307173930728 -6.552838016768633 0 0 0
465 11 2 0.5564 -2.2128749755908976 -11.342917001399961 -6.232143204015801 0 0 0
490 20 1 -1.1128 1.32642456424302 -8.172251423566735 -6.681271741156775 0 0 0
2389 0 3 1 -0.23979357224157252 -9.676906367067055 -7.5916694447383755 0 0 0
535 35 1 -1.1128 0.8399595415469803 -9.443221235579625 -9.558497631054658 0 0 0
536 35 2 0.5564 0.49460218734262623 -10.244512524089222 -9.952061880729568 0 0 0
537 35 2 0.5564 1.790114272504525 -9.557969901977565 -9.574963237711989 0 0 0
492 20 2 0.5564 1.1014673006250477 -7.925188609905587 -5.784284324310403 0 0 0
499 23 1 -1.1128 0.06428569744700643 -6.298965343565101 -9.990485219688036 0 0 0
501 23 2 0.5564 0.7658481035141307 -6.7830613890251135 -10.426023041107616 0 0 0
463 11 1 -1.1128 -1.370595023392306 -11.089184348857579 -5.854762632369846 0 0 0
838 136 1 -1.1128 1.7223474473729306 -11.37425353427979 -7.317557560270337 0 1 0
839 136 2 0.5564 2.366583179177842 -10.959109515775422 -7.891009982114311 0 1 0
500 23 2 0.5564 -0.6341878044397056 -6.942757154211199 -9.872585867899721 0 0 0
828 132 2 0.5564 -4.121384397874753 -11.05021201122802 -7.762722454143744 0 1 0
469 13 1 -1.1128 -1.4377564672031775 -11.316051438634904 -9.206696329942801 0 0 0
478 16 1 -1.1128 -1.7996599590604243 -8.168694685372607 -6.07693984566898 0 0 0
479 16 2 0.5564 -1.5630101402219014 -8.112953885941945 -5.151130858322566 0 0 0
480 16 2 0.5564 -1.968270740257728 -7.262918041180446 -6.336499392788177 0 0 0
1052 207 2 0.5564 0.4052071436081016 -6.252318893522674 -6.9987336645837415 0 0 0
1051 207 1 -1.1128 0.11112519555988323 -5.4325816036941665 -7.395947429278458 0 0 0
1053 207 2 0.5564 0.14316247862624187 -5.597482802459997 -8.338292513349444 0 0 0
1048 206 1 -1.1128 2.0845061316452043 -3.7615874940799388 -9.937782553121425 0 0 0
491 20 2 0.5564 2.2832122141839455 -8.153815859479023 -6.702491468210443 0 0 0
2386 0 3 1 1.1011294609121394 -3.951582515133414 -5.797482372594548 0 0 0
1063 211 1 -1.1128 3.027634474467426 -4.767308895629244 -6.943873401340392 0 0 0
1065 211 2 0.5564 3.675312572309013 -5.176155360180721 -6.369774507339599 0 0 0
542 37 2 0.5564 -1.0899744834586744 -4.743708937946848 -10.13186284189043 0 0 0
555 41 2 0.5564 3.525906779704998 -6.724677673577381 -7.644822664677462 0 0 0
832 134 1 -1.1128 3.606511384210536 -10.340218199475794 -9.138206918290557 0 1 0
1050 206 2 0.5564 2.223027796579155 -4.538190551892878 -9.39562824085807 0 0 0
1411 327 1 -1.1128 0.7297250311318485 -5.745945485811553 -4.355022352722221 0 0 0
1064 211 2 0.5564 3.516226569118089 -4.091748771148919 -7.41411603389359 0 0 0
553 41 1 -1.1128 4.056436432118746 -7.477082131154141 -7.382796274588681 0 0 0
554 41 2 0.5564 4.954251887719513 -7.145373337741525 -7.371434239518137 0 0 0
653 74 2 0.5564 11.426911352114338 -5.690397992501707 -9.44098199336111 -1 0 0
868 146 1 -1.1128 10.471052921382533 -9.008273128623722 -5.922866686901686 -1 0 0
870 146 2 0.5564 10.458688171374726 -8.177759161628098 -6.398603717961983 -1 0 0
869 146 2 0.5564 10.351132671400476 -8.761373525397335 -5.00586467670088 -1 0 0
481 17 1 -1.1128 10.95017816886332 -11.051330083515179 -7.850666400046619 0 0 0
565 45 1 -1.1128 7.5757643994862125 -10.00121014357277 -6.182364630693386 0 0 0
566 45 2 0.5564 8.526018222614956 -10.041651510380076 -6.290133606869577 0 0 0
567 45 2 0.5564 7.34437816122755 -9.105266811003766 -6.427270640385624 0 0 0
571 47 1 -1.1128 8.402734245406975 -5.172654665438001 -6.701764902457372 0 0 0
572 47 2 0.5564 8.064589950068905 -5.063379628045969 -7.59055585703788 0 0 0
573 47 2 0.5564 9.34665676575215 -5.283076215867292 -6.816001857794111 0 0 0
803 124 2 0.5564 6.404527193190315 -7.236548151441354 -5.722086099044524 -1 1 0
483 17 2 0.5564 10.72608311282723 -10.280370654712343 -7.329479561912041 0 0 0
833 134 2 0.5564 4.2501812249435185 -10.961201693928201 -9.479235515719063 0 1 0
834 134 2 0.5564 4.130960641027546 -9.63637170354594 -8.756388956748497 0 1 0
772 114 1 -1.1128 11.266883269255983 -5.805371490080978 -6.724944794668072 0 1 0
773 114 2 0.5564 11.75917940520306 -5.729976708276023 -7.542375778142231 0 1 0
774 114 2 0.5564 11.406734440175747 -4.968173770440045 -6.282480956279186 0 1 0
802 124 1 -1.1128 6.685325715198802 -7.358049938532997 -6.629071521969857 -1 1 0
804 124 2 0.5564 7.5415780220459325 -6.932580865618503 -6.674249349863915 -1 1 0
634 68 1 -1.1128 6.806001217461857 -4.008625604162674 -9.587841985146088 0 0 0
635 68 2 0.5564 6.537098136522032 -4.74890585776453 -10.131816431118716 0 0 0
482 17 2 0.5564 11.827685203335973 -10.867543692962425 -8.185981747324838 0 0 0
636 68 2 0.5564 5.98651715985749 -3.573463226358302 -9.352656020869723 0 0 0
489 19 2 0.5564 5.991461150953963 -11.360177950001512 -6.393146991565943 0 0 0
926 165 2 0.5564 7.031623126628815 -11.615011267012251 -4.362554157715613 0 0 0
493 21 1 -1.1128 5.82318361030953 -11.857636121225449 -9.41843865902115 0 0 0
494 21 2 0.5564 5.7285366437633005 12.044885095831853 -8.52771848634759 0 -1 0
794 121 2 0.5564 9.848161587397922 11.67562583576849 -7.5434960976034064 -1 0 0
978 182 2 0.5564 7.395315955572301 -4.403899315645585 -4.736413805000876 0 0 0
1420 330 1 -1.1128 4.673260394532197 -5.767585950453842 -5.046365393612181 0 0 0
976 182 1 -1.1128 7.012248867033703 -4.762921367162416 -3.9360420476848317 0 0 0
1421 330 2 0.5564 5.305494125793277 -5.082786066142026 -4.8282769698571375 0 0 0
642 70 2 0.5564 10.078143751220566 -5.369514142409558 -3.9467069714231138 0 0 0
954 174 2 0.5564 -6.106058259703694 -3.518221937031934 -5.310671043183209 0 0 0
528 32 2 0.5564 -9.680001325790558 -2.7756661341564155 -7.362500937003278 0 0 0
580 50 1 -1.1128 -8.15187932986469 -1.7316609574090671 -9.637501395931857 0 0 0
581 50 2 0.5564 -7.353864548811272 -1.2077573558471943 -9.567285470874682 0 0 0
582 50 2 0.5564 -7.864063089918374 -2.5559475007832857 -10.029861082666 0 0 0
592 54 1 -1.1128 -7.399074976920467 2.772642322229851 -9.41835889622054 0 0 0
593 54 2 0.5564 -7.284027802113653 1.885831600938778 -9.759772882021252 0 0 0
594 54 2 0.5564 -7.247100799755364 3.341838922221637 -10.172779937182888 0 0 0
597 55 2 0.5564 -5.651472786815738 -0.37869150752521324 -9.070092786292548 0 0 0
1024 198 1 -1.1128 -5.451884745496909 1.8780896122560264 -5.1740417965874235 0 0 0
1026 198 2 0.5564 -5.873201860048617 2.3852209528876447 -5.867973873173567 0 0 0
736 102 1 -1.1128 -10.695317250326235 -3.4818707916167773 -8.92589914517865 0 0 0
737 102 2 0.5564 -10.063981920847558 -3.0016736279918708 -9.461677572637457 0 0 0
738 102 2 0.5564 -11.525959629909543 -3.0283897566106597 -9.069499720543638 0 0 0
1025 198 2 0.5564 -4.583857149620998 2.271078158519357 -5.082826151377411 0 0 0
1099 223 1 -1.1128 -11.195949161576555 -0.13124333288317722 -7.884326365132404 0 0 0
1101 223 2 0.5564 -10.379142602273747 -0.2879124437022743 -8.358155450883718 0 0 0
596 55 2 0.5564 -5.343185341140339 0.8597882147364344 -9.884354448596909 0 0 0
595 55 1 -1.1128 -6.01344652283452 0.18980255011042968 -9.74981435560635 0 0 0
740 103 2 0.5564 -3.8776348922620647 3.1953211092529883 -7.143396194016241 0 0 0
1458 342 2 0.5564 -5.65029323426668 -1.572779345328072 -6.229866970505385 0 0 0
673 81 1 -1.1128 -4.058681591510844 2.0450164631156347 -9.50058346143843 0 0 0
674 81 2 0.5564 -4.572494308815288 2.4401194940120736 -8.796223166982795 0 0 0
742 104 1 -1.1128 -10.561121671229815 2.63680401037557 -6.479747890657084 0 0 0
743 104 2 0.5564 -10.181283947240296 3.0387598822614943 -7.261020514183481 0 0 0
1042 204 1 -1.1128 -7.647057655204656 -0.7244638333827986 -3.7246088197656384 0 0 0
744 104 2 0.5564 -11.504728653817244 2.7626728229634407 -6.579723607798578 0 0 0
2390 0 3 1 -11.136544980239675 -0.9997109897939414 -5.498959336894765 0 0 0
1456 342 1 -1.1128 -5.461679988382217 -1.7045402176052882 -5.300729052030176 0 0 0
538 36 1 -1.1128 -5.674346327502352 -2.075231154677328 -8.04502077578015 0 0 0
540 36 2 0.5564 -6.102223140256348 -2.769072243838561 -8.54675562308801 0 0 0
668 79 2 0.5564 -9.030382905284988 3.005104161093271 -9.352147490996373 0 0 0
667 79 1 -1.1128 -9.968553639055687 3.1900747242728085 -9.30907112147079 0 0 0
739 103 1 -1.1128 -4.631072789648332 3.6625873774916187 -7.504265427390521 0 0 0
1237 269 1 -1.1128 -7.477929209872284 4.250208672481361 -6.733298690446353 0 0 0
1239 269 2 0.5564 -6.558669742250662 4.465233900270626 -6.575316660916884 0 0 0
1155 241 2 0.5564 -9.92260577696869 1.3749167198187275 -4.974487073464662 0 0 0
1457 342 2 0.5564 -6.033753730981378 -1.0838797936769322 -4.849347711167543 0 0 0
1238 269 2 0.5564 -7.49683763536073 3.9236580478301417 -7.632876036267698 0 0 0
543 37 2 0.5564 -1.4658363782738766 -3.4063140482917516 -9.530199804867213 0 0 0
541 37 1 -1.1128 -1.8351615686826441 -4.250809618619957 -9.788382573847922 0 0 0
1049 206 2 0.5564 2.7487153975725795 -3.139763351977433 -9.640473453880507 0 0 0
1034 201 2 0.5564 -3.011235932396544 0.36963940430109454 -5.759942966896599 0 0 0
1033 201 1 -1.1128 -3.1040015242812005 -0.5686534417430369 -5.594914924703352 0 0 0
1108 226 1 -1.1128 -2.515627472715393 2.1911083289294138 -5.62362325609138 0 0 0
974 181 2 0.5564 -1.3666665851295652 -3.8072653577130353 -4.677750939494773 0 0 0
675 81 2 0.5564 -3.5673546410287402 1.3427483579309736 -9.074378444756231 0 0 0
1110 226 2 0.5564 -2.3160230741924708 2.6499383092275384 -4.807617736716344 0 0 0
1109 226 2 0.5564 -1.731130973123389 2.303764867211714 -6.160378034814567 0 0 0
534 34 2 0.5564 -2.886336642528388 -1.6313058447326851 -6.871361855924603 0 0 0
539 36 2 0.5564 -4.763526208642278 -2.3599161279482503 -7.9702341401508665 0 0 0
532 34 1 -1.1128 -2.7745456249149516 -2.2919399203607087 -7.554953317205379 0 0 0
533 34 2 0.5564 -2.703756594345444 -3.1196760982616474 -7.07948135135213 0 0 0
609 59 2 0.5564 -2.129153129957076 -0.8272796786662446 -8.53593932000007 0 0 0
621 63 2 0.5564 0.7769216511082031 -2.0337138320303376 -8.33465514855128 0 0 0
1059 209 2 0.5564 0.14613091423899466 3.2350755280122403 -6.248199225536197 0 0 0
616 62 1 -1.1128 1.1354974122586545 0.37090387143240766 -9.572933619970007 0 0 0
617 62 2 0.5564 2.001214407243123 0.34171761080716295 -9.98025937836923 0 0 0
618 62 2 0.5564 0.8262530090688196 -0.5345206657672994 -9.601355210335585 0 0 0
619 63 1 -1.1128 0.2655381618668476 -2.1582096324584583 -9.134167265297846 0 0 0
620 63 2 0.5564 0.8163762270184013 -2.7118495246177314 -9.68760399121189 0 0 0
685 85 1 -1.1128 0.8836847675873771 3.2545639091770138 -9.255988778836214 0 0 0
691 87 1 -1.1128 1.7431787889097712 -1.9565992940930852 -6.814626913857956 0 0 0
692 87 2 0.5564 1.5686777639873892 -1.0735799051988897 -6.488959375225481 0 0 0
693 87 2 0.5564 2.5946240786221213 -1.8891181376049075 -7.246738916588098 0 0 0
1057 209 1 -1.1128 -0.2371281471617313 2.58557376383397 -6.837683587742581 0 0 0
1128 232 2 0.5564 -2.6966810762911813 3.5783330475584543 -9.595060142121262 0 0 0
607 59 1 -1.1128 -2.1283327310978404 0.06561078675344292 -8.880872307188843 0 0 0
608 59 2 0.5564 -1.280841620210574 0.15360518460853775 -9.317046337290028 0 0 0
975 181 2 0.5564 -1.2147468669183374 -2.301362404821814 -4.645009070483184 0 0 0
973 181 1 -1.1128 -0.9635872959449262 -3.0767579245947356 -5.146918895635237 0 0 0
1486 352 1 -1.1128 1.103684783148139 0.600877630355786 -5.738611768582011 0 0 0
1488 352 2 0.5564 1.6050025325227983 1.310539313478392 -5.336999156834532 0 0 0
686 85 2 0.5564 0.8111182456318694 2.348946219341669 -9.557358619754439 0 0 0
704 91 2 0.5564 2.9223749371973518 2.3815489505467675 -8.750395606757987 0 0 0
1058 209 2 0.5564 -0.04548793209152867 2.9155447594895842 -7.715536099927896 0 0 0
1487 352 2 0.5564 0.5847172952564098 1.0290885695728373 -6.419449504588753 0 0 0
703 91 1 -1.1128 3.7344563711862575 2.0251702082242207 -9.110603946826904 0 0 0
1201 257 1 -1.1128 4.392598242076372 3.813606351117424 -6.543745487063345 0 0 0
1202 257 2 0.5564 3.7232496908585726 3.9332639313357176 -5.870034080372638 0 0 0
1126 232 1 -1.1128 -1.9188658057594687 4.101298884644073 -9.400784537403183 0 0 0
687 85 2 0.5564 0.1442501933727459 3.7037478384919824 -9.665504318974296 0 0 0
508 26 1 -1.1128 10.008369963600922 -4.2849095138002555 -9.537963726375603 -1 0 0
509 26 2 0.5564 10.348908917913018 -3.394561827798783 -9.62483627654216 -1 0 0
510 26 2 0.5564 9.058511008455966 -4.1859428950924125 -9.602814614815005 -1 0 0
557 42 2 0.5564 5.288142311053875 -2.637061837479355 -6.948826179282221 0 0 0
1100 223 2 0.5564 -11.46389067473166 0.7478221591012488 -8.152066594571648 0 0 0
511 27 1 -1.1128 10.945327864411478 -2.8906626638416535 -6.2967598129482 -1 0 0
513 27 2 0.5564 10.114721822304498 -2.5960234307537515 -6.670274453266991 -1 0 0
556 42 1 -1.1128 5.722102475514389 -2.71241293273548 -6.098983420097669 0 0 0
558 42 2 0.5564 5.162290304956629 -2.2194657191708793 -5.499112400579498 0 0 0
512 27 2 0.5564 10.930523683785058 -2.569223392902367 -5.395266885704656 -1 0 0
645 71 2 0.5564 7.974949580031896 2.833390285479104 -5.495513603525659 0 0 0
658 76 1 -1.1128 11.641153346034264 2.0478351916907354 -8.914065061903372 -1 0 0
644 71 2 0.5564 9.030600901275488 1.8023645329914544 -5.1571625769136675 0 0 0
643 71 1 -1.1128 8.774627343034469 2.4299210919377634 -5.833093165423268 0 0 0
626 65 2 0.5564 5.386461985261954 -0.4721882749202251 -8.880315175583648 0 0 0
625 65 1 -1.1128 5.743795784095201 0.3891414869743624 -8.66431624091276 0 0 0
514 28 1 -1.1128 8.083963497823078 -1.203588962502709 -6.30724306961969 -1 0 0
515 28 2 0.5564 7.281129025231595 -1.7149487203921894 -6.206241263997194 -1 0 0
627 65 2 0.5564 5.097818319029923 1.0088427659027934 -9.003307954427253 0 0 0
516 28 2 0.5564 8.163504351186088 -1.0656723094536116 -7.25111005623557 -1 0 0
660 76 2 0.5564 -11.74516365817852 2.395250547996642 -9.172444191527855 0 0 0
2398 0 4 -1 4.246494362007528 -2.2355702125337946 -8.656654471844874 0 0 0
1130 233 2 0.5564 7.407001075132388 1.5320280777625195 -8.36386715926526 0 0 0
568 46 1 -1.1128 8.719093101700969 -0.6454415169351178 -8.973679222271253 0 0 0
569 46 2 0.5564 7.968087174147262 -0.9187341485688736 -9.500493428426552 0 0 0
570 46 2 0.5564 8.615213079703643 0.30156335203208784 -8.880817790137154 0 0 0
1013 194 2 0.5564 11.760206518832502 -1.0695912529943505 -8.959384943798911 -1 0 0
769 113 1 -1.1128 5.12639929559326 1.2266913165918671 -5.905195436551476 0 0 0
705 91 2 0.5564 4.365295241188002 2.7410359629209924 -9.034376778106653 0 0 0
770 113 2 0.5564 4.755532720179696 2.0172280800921785 -6.2972956285201045 0 0 0
771 113 2 0.5564 5.490409146701675 0.7400696786999835 -6.644741940064069 0 0 0
1012 194 1 -1.1128 11.187451189429128 -1.7732015534292953 -9.264533669092662 -1 0 0
1014 194 2 0.5564 10.323407588697863 -1.3669228550923376 -9.332343350201779 -1 0 0
1129 233 1 -1.1128 8.158408548545776 2.1135043040761055 -8.480074159188796 0 0 0
1131 233 2 0.5564 8.48067552145167 2.2695216813456325 -7.592361104994858 0 0 0
1654 408 1 -1.1128 4.264654125963292 -1.056930409770865 -4.446762561556012 0 0 0
1655 408 2 0.5564 3.335552640259203 -1.2249394395904312 -4.604164979773549 0 0 0
1656 408 2 0.5564 4.466447102915492 -0.2957565974521244 -4.990938925128105 0 0 0
713 94 2 0.5564 9.150577326610861 3.4171742197625625 -9.251912898040962 0 0 0
1629 399 2 0.5564 6.248213568209194 3.844109196582371 -5.192520952093391 0 0 0
659 76 2 0.5564 11.019250225576522 2.7333802629235127 -9.157983752086958 -1 0 0
1071 213 2 0.5564 8.557243994809927 -0.32685334557763634 -4.8211470208368805 0 0 0