LAMMPS data file via write_data, version 29 Aug 2024, timestep = 12000, units = real

1680 atoms
5 atom types
812 bonds
1 bond types
406 angles
1 angle types

-12.120000000000001 12.120000000000001 xlo xhi
-12.120000000000001 12.120000000000001 ylo yhi
-20.2 20.2 zlo zhi

Atom Type Labels

1 O
2 H
3 Na+
4 Cl-
5 WALL

Bond Type Labels

1 O-H

Angle Type Labels

1 H-O-H

Masses

1 15.9994
2 1.008
3 22.99
4 35.453
5 26.9815

Atoms # full

1 0 5 0 -12.120000000000001 -12.120000000000001 -16.16 0 0 0
2 0 5 0 -10.1 -10.1 -16.16 0 0 0
3 0 5 0 -10.1 -12.120000000000001 -14.14 0 0 0
4 0 5 0 -12.120000000000001 -10.1 -14.14 0 0 0
5 0 5 0 -8.08 -12.120000000000001 -16.16 0 0 0
6 0 5 0 -6.0600000000000005 -10.1 -16.16 0 0 0
7 0 5 0 -6.0600000000000005 -12.120000000000001 -14.14 0 0 0
8 0 5 0 -8.08 -10.1 -14.14 0 0 0
25 0 5 0 -12.120000000000001 -8.08 -16.16 0 0 0
26 0 5 0 -10.1 -6.0600000000000005 -16.16 0 0 0
27 0 5 0 -10.1 -8.08 -14.14 0 0 0
28 0 5 0 -12.120000000000001 -6.0600000000000005 -14.14 0 0 0
29 0 5 0 -8.08 -8.08 -16.16 0 0 0
30 0 5 0 -6.0600000000000005 -6.0600000000000005 -16.16 0 0 0
31 0 5 0 -6.0600000000000005 -8.08 -14.14 0 0 0
32 0 5 0 -8.08 -6.0600000000000005 -14.14 0 0 0
145 0 5 0 -12.120000000000001 -12.120000000000001 -12.120000000000001 0 0 0
146 0 5 0 -10.1 -10.1 -12.120000000000001 0 0 0
147 0 5 0 -8.08 -12.120000000000001 -12.120000000000001 0 0 0
148 0 5 0 -6.0600000000000005 -10.1 -12.120000000000001 0 0 0
157 0 5 0 -12.120000000000001 -8.08 -12.120000000000001 0 0 0
158 0 5 0 -10.1 -6.0600000000000005 -12.120000000000001 0 0 0
159 0 5 0 -8.08 -8.08 -12.120000000000001 0 0 0
160 0 5 0 -6.0600000000000005 -6.0600000000000005 -12.120000000000001 0 0 0
9 0 5 0 -4.04 -12.120000000000001 -16.16 0 0 0
10 0 5 0 -2.02 -10.1 -16.16 0 0 0
11 0 5 0 -2.02 -12.120000000000001 -14.14 0 0 0
12 0 5 0 -4.04 -10.1 -14.14 0 0 0
13 0 5 0 0 -12.120000000000001 -16.16 0 0 0
14 0 5 0 2.02 -10.1 -16.16 0 0 0
15 0 5 0 2.02 -12.120000000000001 -14.14 0 0 0
16 0 5 0 0 -10.1 -14.14 0 0 0
17 0 5 0 4.04 -12.120000000000001 -16.16 0 0 0
20 0 5 0 4.04 -10.1 -14.14 0 0 0
33 0 5 0 -4.04 -8.08 -16.16 0 0 0
34 0 5 0 -2.02 -6.0600000000000005 -16.16 0 0 0
35 0 5 0 -2.02 -8.08 -14.14 0 0 0
36 0 5 0 -4.04 -6.0600000000000005 -14.14 0 0 0
37 0 5 0 0 -8.08 -16.16 0 0 0
38 0 5 0 2.02 -6.0600000000000005 -16.16 0 0 0
39 0 5 0 2.02 -8.08 -14.14 0 0 0
40 0 5 0 0 -6.0600000000000005 -14.14 0 0 0
41 0 5 0 4.04 -8.08 -16.16 0 0 0
44 0 5 0 4.04 -6.0600000000000005 -14.14 0 0 0
149 0 5 0 -4.04 -12.120000000000001 -12.120000000000001 0 0 0
150 0 5 0 -2.02 -10.1 -12.120000000000001 0 0 0
151 0 5 0 0 -12.120000000000001 -12.120000000000001 0 0 0
152 0 5 0 2.02 -10.1 -12.120000000000001 0 0 0
153 0 5 0 4.04 -12.120000000000001 -12.120000000000001 0 0 0
161 0 5 0 -4.04 -8.08 -12.120000000000001 0 0 0
162 0 5 0 -2.02 -6.0600000000000005 -12.120000000000001 0 0 0
163 0 5 0 0 -8.08 -12.120000000000001 0 0 0
164 0 5 0 2.02 -6.0600000000000005 -12.120000000000001 0 0 0
165 0 5 0 4.04 -8.08 -12.120000000000001 0 0 0
18 0 5 0 6.0600000000000005 -10.1 -16.16 0 0 0
19 0 5 0 6.0600000000000005 -12.120000000000001 -14.14 0 0 0
21 0 5 0 8.08 -12.120000000000001 -16.16 0 0 0
22 0 5 0 10.1 -10.1 -16.16 0 0 0
23 0 5 0 10.1 -12.120000000000001 -14.14 0 0 0
24 0 5 0 8.08 -10.1 -14.14 0 0 0
42 0 5 0 6.0600000000000005 -6.0600000000000005 -16.16 0 0 0
43 0 5 0 6.0600000000000005 -8.08 -14.14 0 0 0
45 0 5 0 8.08 -8.08 -16.16 0 0 0
46 0 5 0 10.1 -6.0600000000000005 -16.16 0 0 0
47 0 5 0 10.1 -8.08 -14.14 0 0 0
48 0 5 0 8.08 -6.0600000000000005 -14.14 0 0 0
154 0 5 0 6.0600000000000005 -10.1 -12.120000000000001 0 0 0
155 0 5 0 8.08 -12.120000000000001 -12.120000000000001 0 0 0
156 0 5 0 10.1 -10.1 -12.120000000000001 0 0 0
166 0 5 0 6.0600000000000005 -6.0600000000000005 -12.120000000000001 0 0 0
167 0 5 0 8.08 -8.08 -12.120000000000001 0 0 0
168 0 5 0 10.1 -6.0600000000000005 -12.120000000000001 0 0 0
49 0 5 0 -12.120000000000001 -4.04 -16.16 0 0 0
50 0 5 0 -10.1 -2.02 -16.16 0 0 0
51 0 5 0 -10.1 -4.04 -14.14 0 0 0
52 0 5 0 -12.120000000000001 -2.02 -14.14 0 0 0
53 0 5 0 -8.08 -4.04 -16.16 0 0 0
54 0 5 0 -6.0600000000000005 -2.02 -16.16 0 0 0
55 0 5 0 -6.0600000000000005 -4.04 -14.14 0 0 0
56 0 5 0 -8.08 -2.02 -14.14 0 0 0
73 0 5 0 -12.120000000000001 0 -16.16 0 0 0
74 0 5 0 -10.1 2.02 -16.16 0 0 0
75 0 5 0 -10.1 0 -14.14 0 0 0
76 0 5 0 -12.120000000000001 2.02 -14.14 0 0 0
77 0 5 0 -8.08 0 -16.16 0 0 0
78 0 5 0 -6.0600000000000005 2.02 -16.16 0 0 0
79 0 5 0 -6.0600000000000005 0 -14.14 0 0 0
80 0 5 0 -8.08 2.02 -14.14 0 0 0
97 0 5 0 -12.120000000000001 4.04 -16.16 0 0 0
99 0 5 0 -10.1 4.04 -14.14 0 0 0
101 0 5 0 -8.08 4.04 -16.16 0 0 0
103 0 5 0 -6.0600000000000005 4.04 -14.14 0 0 0
169 0 5 0 -12.120000000000001 -4.04 -12.120000000000001 0 0 0
170 0 5 0 -10.1 -2.02 -12.120000000000001 0 0 0
171 0 5 0 -8.08 -4.04 -12.120000000000001 0 0 0
172 0 5 0 -6.0600000000000005 -2.02 -12.120000000000001 0 0 0
181 0 5 0 -12.120000000000001 0 -12.120000000000001 0 0 0
182 0 5 0 -10.1 2.02 -12.120000000000001 0 0 0
183 0 5 0 -8.08 0 -12.120000000000001 0 0 0
184 0 5 0 -6.0600000000000005 2.02 -12.120000000000001 0 0 0
193 0 5 0 -12.120000000000001 4.04 -12.120000000000001 0 0 0
195 0 5 0 -8.08 4.04 -12.120000000000001 0 0 0
57 0 5 0 -4.04 -4.04 -16.16 0 0 0
58 0 5 0 -2.02 -2.02 -16.16 0 0 0
59 0 5 0 -2.02 -4.04 -14.14 0 0 0
60 0 5 0 -4.04 -2.02 -14.14 0 0 0
61 0 5 0 0 -4.04 -16.16 0 0 0
62 0 5 0 2.02 -2.02 -16.16 0 0 0
63 0 5 0 2.02 -4.04 -14.14 0 0 0
64 0 5 0 0 -2.02 -14.14 0 0 0
65 0 5 0 4.04 -4.04 -16.16 0 0 0
68 0 5 0 4.04 -2.02 -14.14 0 0 0
81 0 5 0 -4.04 0 -16.16 0 0 0
82 0 5 0 -2.02 2.02 -16.16 0 0 0
83 0 5 0 -2.02 0 -14.14 0 0 0
84 0 5 0 -4.04 2.02 -14.14 0 0 0
85 0 5 0 0 0 -16.16 0 0 0
86 0 5 0 2.02 2.02 -16.16 0 0 0
87 0 5 0 2.02 0 -14.14 0 0 0
88 0 5 0 0 2.02 -14.14 0 0 0
89 0 5 0 4.04 0 -16.16 0 0 0
92 0 5 0 4.04 2.02 -14.14 0 0 0
105 0 5 0 -4.04 4.04 -16.16 0 0 0
107 0 5 0 -2.02 4.04 -14.14 0 0 0
109 0 5 0 0 4.04 -16.16 0 0 0
111 0 5 0 2.02 4.04 -14.14 0 0 0
113 0 5 0 4.04 4.04 -16.16 0 0 0
173 0 5 0 -4.04 -4.04 -12.120000000000001 0 0 0
174 0 5 0 -2.02 -2.02 -12.120000000000001 0 0 0
175 0 5 0 0 -4.04 -12.120000000000001 0 0 0
176 0 5 0 2.02 -2.02 -12.120000000000001 0 0 0
177 0 5 0 4.04 -4.04 -12.120000000000001 0 0 0
185 0 5 0 -4.04 0 -12.120000000000001 0 0 0
186 0 5 0 -2.02 2.02 -12.120000000000001 0 0 0
187 0 5 0 0 0 -12.120000000000001 0 0 0
188 0 5 0 2.02 2.02 -12.120000000000001 0 0 0
189 0 5 0 4.04 0 -12.120000000000001 0 0 0
197 0 5 0 -4.04 4.04 -12.120000000000001 0 0 0
199 0 5 0 0 4.04 -12.120000000000001 0 0 0
201 0 5 0 4.04 4.04 -12.120000000000001 0 0 0
66 0 5 0 6.0600000000000005 -2.02 -16.16 0 0 0
67 0 5 0 6.0600000000000005 -4.04 -14.14 0 0 0
69 0 5 0 8.08 -4.04 -16.16 0 0 0
70 0 5 0 10.1 -2.02 -16.16 0 0 0
71 0 5 0 10.1 -4.04 -14.14 0 0 0
72 0 5 0 8.08 -2.02 -14.14 0 0 0
90 0 5 0 6.0600000000000005 2.02 -16.16 0 0 0
91 0 5 0 6.0600000000000005 0 -14.14 0 0 0
93 0 5 0 8.08 0 -16.16 0 0 0
94 0 5 0 10.1 2.02 -16.16 0 0 0
95 0 5 0 10.1 0 -14.14 0 0 0
96 0 5 0 8.08 2.02 -14.14 0 0 0
115 0 5 0 6.0600000000000005 4.04 -14.14 0 0 0
117 0 5 0 8.08 4.04 -16.16 0 0 0
119 0 5 0 10.1 4.04 -14.14 0 0 0
178 0 5 0 6.0600000000000005 -2.02 -12.120000000000001 0 0 0
179 0 5 0 8.08 -4.04 -12.120000000000001 0 0 0
180 0 5 0 10.1 -2.02 -12.120000000000001 0 0 0
190 0 5 0 6.0600000000000005 2.02 -12.120000000000001 0 0 0
191 0 5 0 8.08 0 -12.120000000000001 0 0 0
192 0 5 0 10.1 2.02 -12.120000000000001 0 0 0
203 0 5 0 8.08 4.04 -12.120000000000001 0 0 0
98 0 5 0 -10.1 6.0600000000000005 -16.16 0 0 0
100 0 5 0 -12.120000000000001 6.0600000000000005 -14.14 0 0 0
102 0 5 0 -6.0600000000000005 6.0600000000000005 -16.16 0 0 0
104 0 5 0 -8.08 6.0600000000000005 -14.14 0 0 0
121 0 5 0 -12.120000000000001 8.08 -16.16 0 0 0
122 0 5 0 -10.1 10.1 -16.16 0 0 0
123 0 5 0 -10.1 8.08 -14.14 0 0 0
124 0 5 0 -12.120000000000001 10.1 -14.14 0 0 0
125 0 5 0 -8.08 8.08 -16.16 0 0 0
126 0 5 0 -6.0600000000000005 10.1 -16.16 0 0 0
127 0 5 0 -6.0600000000000005 8.08 -14.14 0 0 0
128 0 5 0 -8.08 10.1 -14.14 0 0 0
194 0 5 0 -10.1 6.0600000000000005 -12.120000000000001 0 0 0
196 0 5 0 -6.0600000000000005 6.0600000000000005 -12.120000000000001 0 0 0
205 0 5 0 -12.120000000000001 8.08 -12.120000000000001 0 0 0
206 0 5 0 -10.1 10.1 -12.120000000000001 0 0 0
207 0 5 0 -8.08 8.08 -12.120000000000001 0 0 0
208 0 5 0 -6.0600000000000005 10.1 -12.120000000000001 0 0 0
106 0 5 0 -2.02 6.0600000000000005 -16.16 0 0 0
108 0 5 0 -4.04 6.0600000000000005 -14.14 0 0 0
110 0 5 0 2.02 6.0600000000000005 -16.16 0 0 0
112 0 5 0 0 6.0600000000000005 -14.14 0 0 0
116 0 5 0 4.04 6.0600000000000005 -14.14 0 0 0
129 0 5 0 -4.04 8.08 -16.16 0 0 0
130 0 5 0 -2.02 10.1 -16.16 0 0 0
131 0 5 0 -2.02 8.08 -14.14 0 0 0
132 0 5 0 -4.04 10.1 -14.14 0 0 0
133 0 5 0 0 8.08 -16.16 0 0 0
134 0 5 0 2.02 10.1 -16.16 0 0 0
135 0 5 0 2.02 8.08 -14.14 0 0 0
136 0 5 0 0 10.1 -14.14 0 0 0
137 0 5 0 4.04 8.08 -16.16 0 0 0
140 0 5 0 4.04 10.1 -14.14 0 0 0
198 0 5 0 -2.02 6.0600000000000005 -12.120000000000001 0 0 0
200 0 5 0 2.02 6.0600000000000005 -12.120000000000001 0 0 0
209 0 5 0 -4.04 8.08 -12.120000000000001 0 0 0
210 0 5 0 -2.02 10.1 -12.120000000000001 0 0 0
211 0 5 0 0 8.08 -12.120000000000001 0 0 0
212 0 5 0 2.02 10.1 -12.120000000000001 0 0 0
213 0 5 0 4.04 8.08 -12.120000000000001 0 0 0
114 0 5 0 6.0600000000000005 6.0600000000000005 -16.16 0 0 0
118 0 5 0 10.1 6.0600000000000005 -16.16 0 0 0
120 0 5 0 8.08 6.0600000000000005 -14.14 0 0 0
138 0 5 0 6.0600000000000005 10.1 -16.16 0 0 0
139 0 5 0 6.0600000000000005 8.08 -14.14 0 0 0
141 0 5 0 8.08 8.08 -16.16 0 0 0
142 0 5 0 10.1 10.1 -16.16 0 0 0
143 0 5 0 10.1 8.08 -14.14 0 0 0
144 0 5 0 8.08 10.1 -14.14 0 0 0
202 0 5 0 6.0600000000000005 6.0600000000000005 -12.120000000000001 0 0 0
204 0 5 0 10.1 6.0600000000000005 -12.120000000000001 0 0 0
214 0 5 0 6.0600000000000005 10.1 -12.120000000000001 0 0 0
215 0 5 0 8.08 8.08 -12.120000000000001 0 0 0
216 0 5 0 10.1 10.1 -12.120000000000001 0 0 0
438 2 2 0.5564 -8.280772017282954 -5.303837966632944 -9.129396714096698 0 0 0
448 6 1 -1.1128 -6.87170807842119 -8.159836629698914 -8.712770606942756 0 0 0
449 6 2 0.5564 -5.920431313042871 -8.053610962086061 -8.708245159830449 0 0 0
516 28 2 0.5564 -6.205862293008302 -3.592137488377256 -10.222691185528555 0 0 0
742 104 1 -1.1128 -6.534131109431567 -5.254252416541495 -7.498869327688278 0 1 0
744 104 2 0.5564 -6.503859329499648 -6.191143347706817 -7.6926499189989785 0 1 0
436 2 1 -1.1128 -8.683723443847363 -6.156692870870858 -9.292186618622118 0 0 0
446 5 2 0.5564 -8.072245546914578 -9.440206566137643 -9.207444778860957 0 0 0
445 5 1 -1.1128 -8.798337712130683 -10.063089096093883 -9.239686523031072 0 0 0
743 104 2 0.5564 -6.062080493073573 -4.843939184373307 -8.223467997627054 0 1 0
437 2 2 0.5564 -9.542439656583158 -5.949909183161848 -9.661075426193271 0 0 0
496 22 1 -1.1128 -11.721923006265085 -5.775522903487152 -9.784746522646707 1 0 0
497 22 2 0.5564 -11.882288903246526 -6.689632996808243 -9.55040198992944 1 0 0
565 45 1 -1.1128 -11.064947400948718 -8.456096864383738 -8.601133485174538 1 0 0
570 46 2 0.5564 -11.042167520214226 -4.110644356134331 -9.522037626720842 1 0 0
878 149 2 0.5564 -7.90121085186619 -5.821698654899988 -6.431258313608146 0 0 0
447 5 2 0.5564 -9.57817865715883 -9.53100433702229 -9.081680715776871 0 0 0
857 142 2 0.5564 -9.897636147964032 -11.289700374220143 -9.479176833677787 1 1 0
1312 294 1 -1.1128 -7.391679390695551 -8.826706660663282 -4.7623261120106095 0 0 0
495 21 2 0.5564 -8.58921018548369 -10.713587318489191 -7.440537691130551 1 0 0
858 142 2 0.5564 -11.389766077601644 -11.53886050454374 -9.53716640526741 1 1 0
1313 294 2 0.5564 -7.631577247808076 -9.622202645992834 -5.23758097080132 0 0 0
1314 294 2 0.5564 -7.8469055213348895 -8.12373978015235 -5.225833061841272 0 0 0
879 149 2 0.5564 -9.263613760539533 -6.429692091407932 -6.1741634367812885 0 0 0
877 149 1 -1.1128 -8.424456503196279 -6.2466182688112415 -5.751634009491108 0 0 0
450 6 2 0.5564 -7.192013835038787 -7.431288749268551 -9.244610880217026 0 0 0
804 124 2 0.5564 -4.328643433729453 -8.792480691142057 -5.285682904286929 0 1 0
501 23 2 0.5564 -10.079840741748514 -4.4772684117251105 -4.77302691499084 1 0 0
493 21 1 -1.1128 -8.460915836755587 -10.839372494171766 -6.50035126800718 1 0 0
737 102 2 0.5564 -7.062585951555799 -11.837157822078396 -9.369199813341405 0 1 0
736 102 1 -1.1128 -6.623286460059392 11.590949703797929 -9.116062547794064 0 0 0
856 142 1 -1.1128 -10.550622198839758 -11.988303904355071 -9.43681679205302 1 1 0
585 51 2 0.5564 -3.856482387610984 -4.387161995700757 -3.286873783319594 0 0 0
802 124 1 -1.1128 -4.173093640546216 -8.85591423082706 -6.228026973594691 0 1 0
953 174 2 0.5564 -4.13501994182772 -5.822961817117334 -7.101387736930659 0 0 0
1398 322 2 0.5564 -4.070600209524089 -7.980250846227309 -7.730968407332752 0 0 0
954 174 2 0.5564 -2.8065369821684327 -5.939333856275749 -6.384808473365849 0 0 0
952 174 1 -1.1128 -3.6035871811660636 -5.41049289992928 -6.420446848695912 0 0 0
1396 322 1 -1.1128 -4.139856046784245 -7.330915515513475 -8.430825013819797 0 0 0
738 102 2 0.5564 -5.7117465693204394 11.71943614541765 -9.378394756686648 0 0 0
566 45 2 0.5564 -11.040255112222633 -7.70936409167998 -8.002792064846371 1 0 0
567 45 2 0.5564 -11.501634110482824 -9.147696208039408 -8.103914132387834 1 0 0
433 1 1 -1.1128 12.11172640834444 -10.275776261861875 -6.756650762932461 -1 0 0
514 28 1 -1.1128 -5.596338156049838 -4.09746301919906 -9.684770813865837 0 0 0
1434 334 2 0.5564 -7.462998636289248 -6.022179768156686 -4.1214083694561205 1 0 0
1501 357 1 -1.1128 -10.88528963546886 -6.759313596571816 -6.518723013244852 1 0 0
499 23 1 -1.1128 -10.469002970094976 -3.6602092289068895 -5.084794424110331 1 0 0
434 1 2 0.5564 -11.643591341046962 -10.976912319327326 -6.321078487852881 0 0 0
494 21 2 0.5564 -9.216802315647788 -11.356501377422491 -6.222061142444549 1 0 0
1232 267 2 0.5564 -7.37806876257823 11.995753947104115 -6.243838628187951 0 0 0
927 165 2 0.5564 -5.148387218801164 -11.833287030772194 -6.0450228758775335 1 0 0
1503 357 2 0.5564 -10.99351461069068 -7.284617224250739 -5.725895385931642 1 0 0
803 124 2 0.5564 -4.322159702936256 -9.778664040624273 -6.434288857074209 0 1 0
1397 322 2 0.5564 -3.4196527777196777 -7.541044361035284 -9.025286964392965 0 0 0
961 177 1 -1.1128 -1.500637250286778 -7.481596417836455 -9.356428734325643 0 0 0
963 177 2 0.5564 -1.3896436763172269 -7.179867401956002 -10.258022893773637 0 0 0
2399 0 4 -1 1.5018568780151267 -8.033101077431226 -9.109203670265934 0 0 0
462 10 2 0.5564 3.7151979833191198 -5.240867562856984 -9.63635170345675 0 0 0
535 35 1 -1.1128 0.5446663503477817 -4.636737401002988 -8.913103342302854 0 0 0
536 35 2 0.5564 0.2781213935885059 -5.4961129171975776 -9.239690862148521 0 0 0
673 81 1 -1.1128 1.3885598170012257 -5.914708721814852 -6.731253756409524 0 0 0
675 81 2 0.5564 1.7303164780623361 -6.730122804480423 -7.09804280825667 0 0 0
962 177 2 0.5564 -0.6131109095978171 -7.682830801775717 -9.059724106837711 0 0 0
805 125 1 -1.1128 -1.009113577494681 -10.506173006936178 -8.871776370649911 0 1 0
806 125 2 0.5564 -1.7529984261481966 -11.09946419168743 -8.767503827664557 0 1 0
807 125 2 0.5564 -1.176625195235196 -10.054307316365346 -9.698812718675335 0 1 0
828 132 2 0.5564 -1.4806778086645043 -6.968605632892106 -7.384942353322796 0 1 0
812 127 2 0.5564 -0.636726970517366 -12.07329357358105 -6.583462238175375 0 1 0
2379 0 3 1 1.1373439701099928 -10.590616438522742 -8.238403497244358 0 1 0
826 132 1 -1.1128 -1.3250312941288516 -6.824447621229041 -6.4515482763704295 0 1 0
827 132 2 0.5564 -0.3786617838713059 -6.698438991292458 -6.382711864946556 0 1 0
674 81 2 0.5564 1.2117363213089671 -5.364024750215972 -7.4939545580596985 0 0 0
815 128 2 0.5564 -2.9323427978162413 -7.707856319230851 -3.59136665214999 0 1 0
814 128 1 -1.1128 -2.015574124513253 -7.502098244976536 -3.774207344740547 0 1 0
816 128 2 0.5564 -2.0138068859102574 -7.200919718428493 -4.68278881183744 0 1 0
478 16 1 -1.1128 2.9835471254045776 -11.23391428101746 -7.020523855600359 0 0 0
1283 284 2 0.5564 -0.7697842012858608 -9.883239644218015 -6.467933483786634 0 1 0
1284 284 2 0.5564 0.13653266473767667 -10.067090406084994 -5.269315896247911 0 1 0
1282 284 1 -1.1128 -0.08603446962958276 -10.453415008336357 -6.116339598570631 0 1 0
986 185 2 0.5564 2.6302476138479225 -5.3169994419540005 -5.558153615296262 0 0 0
965 178 2 0.5564 3.9329123253666114 -3.370338638028474 -5.331541754392502 0 0 0
985 185 1 -1.1128 3.4390088103516874 -5.112265576061891 -5.088876211782121 0 0 0
987 185 2 0.5564 3.3403083197035426 -5.544653448882623 -4.240624561937382 0 0 0
480 16 2 0.5564 3.585197382353911 -11.710836144992063 -7.592183175624058 0 0 0
479 16 2 0.5564 3.553224950859957 -10.757143066273576 -6.416877807647434 0 0 0
471 13 2 0.5564 3.20274286147837 -9.440753587309864 -9.797485208575191 0 0 0
461 10 2 0.5564 3.169688686352462 -6.653064630421843 -9.640142426612208 0 0 0
537 35 2 0.5564 -0.26740625385613037 -4.234848557347973 -8.604468763872438 0 0 0
811 127 1 -1.1128 -0.6422515881468113 11.38388359550181 -7.134270536339182 0 0 0
926 165 2 0.5564 -3.9034707433310945 11.975350824750489 -6.7906803233076145 1 -1 0
813 127 2 0.5564 -1.4607816577261408 11.442891149924236 -7.626975811549493 0 0 0
925 165 1 -1.1128 -4.19844963290902 -11.717003042413559 -6.063148091460517 1 0 0
1721 430 2 0.5564 -3.282057459467396 -11.940056751924763 -4.262313921166846 1 1 0
498 22 2 0.5564 11.695314288769175 -5.479774310003572 -10.174395279294933 0 0 0
460 10 1 -1.1128 3.9878154680494395 -6.1575310597125394 -9.676843610798068 0 0 0
470 13 2 0.5564 4.618529203607795 -9.580750060597717 -10.315022956963142 0 0 0
469 13 1 -1.1128 3.892694501175221 -10.086560802172471 -9.949576141809906 0 0 0
435 1 2 0.5564 11.435763677125966 -10.024423877479222 -6.127263536561855 -1 0 0
620 63 2 0.5564 5.656418711386825 -5.272828420052025 -9.597213337455337 0 0 0
541 37 1 -1.1128 5.77348558280818 -7.6824875637008585 -8.342863926903245 0 0 0
542 37 2 0.5564 5.773382817315094 -7.098180481758801 -7.584696988644919 0 0 0
543 37 2 0.5564 5.108267676362975 -7.31810471592714 -8.926766437167917 0 0 0
1058 209 2 0.5564 9.985784130112886 -8.35070584630456 -5.013091053401249 0 0 0
486 18 2 0.5564 8.938433248860992 -9.125119684990555 -9.09024843823145 0 0 0
484 18 1 -1.1128 8.670064348975366 -9.985768069851138 -9.411953800189107 0 0 0
553 41 1 -1.1128 10.128684379264476 -4.316665431607951 -8.916653519958883 0 0 0
555 41 2 0.5564 10.354706890214864 -4.184008944882509 -7.996029721553722 0 0 0
485 18 2 0.5564 7.832486644030561 -10.153024226064103 -8.979841710984877 0 0 0
554 41 2 0.5564 9.637582931109092 -3.531524782511084 -9.158739104159054 0 0 0
571 47 1 -1.1128 8.987622738606685 -7.142310489865293 -8.491908857356957 0 0 0
572 47 2 0.5564 8.030682847210736 -7.145214109820302 -8.51403375361535 0 0 0
573 47 2 0.5564 9.230515718758678 -6.248143448480414 -8.732117562570936 0 0 0
989 186 2 0.5564 10.388883481632305 -5.598135376349508 -5.950892833868503 0 0 0
990 186 2 0.5564 10.916424047959607 -4.208373018811997 -5.66426265645087 0 0 0
997 189 1 -1.1128 6.524360751640685 -7.987963540875142 -5.330648597434352 0 0 0
999 189 2 0.5564 7.112290092098445 -8.138685321486253 -4.590477026216029 0 0 0
988 186 1 -1.1128 11.110671694233462 -5.004727760177512 -6.158548892818052 0 0 0
998 189 2 0.5564 6.236893302800824 -7.0807466645877515 -5.227926310158517 0 0 0
481 17 1 -1.1128 10.696153835826939 -11.955129048078211 -8.673391632544268 0 0 0
482 17 2 0.5564 11.10939383514038 -11.520826388328619 -7.927170646324497 0 0 0
483 17 2 0.5564 10.155774895540578 -11.276045955162704 -9.077209208549743 0 0 0
636 68 2 0.5564 5.985953065028878 -10.44765579598475 -6.657413699211661 0 0 0
994 188 1 -1.1128 4.533463526021518 -9.863572351075524 -5.051369024767917 0 0 0
704 91 2 0.5564 4.93882712523865 -5.174493198293248 -6.094158083221205 0 0 0
995 188 2 0.5564 4.750097930933728 -10.206538036744018 -4.184376552784722 0 0 0
1494 354 2 0.5564 9.103848039544312 -7.004430952334277 -6.624506890596131 0 0 0
996 188 2 0.5564 5.197207144930619 -9.194153656924493 -5.217365646426267 0 0 0
491 20 2 0.5564 8.656983215341787 -10.797458295271298 -4.436753038067979 0 0 0
490 20 1 -1.1128 8.2980917050283 -11.491758113222607 -4.98936189071541 0 0 0
1493 354 2 0.5564 7.983509610889498 -7.224193617578724 -5.63030285159662 0 0 0
1492 354 1 -1.1128 8.848275217950157 -6.823719754047919 -5.719930727542383 0 0 0
1502 357 2 0.5564 -11.430872575666992 -5.986799851965755 -6.371095601593567 1 0 0
964 178 1 -1.1128 3.9003030181626333 -2.4190175626439485 -5.432322617318744 0 0 0
619 63 1 -1.1128 6.158702147337864 -4.463036605394924 -9.506767678875386 0 0 0
966 178 2 0.5564 4.716955810934516 -2.1081600507683214 -5.041582656110662 0 0 0
703 91 1 -1.1128 5.794796186021871 -5.177077727472973 -6.522576279943578 0 0 0
705 91 2 0.5564 5.696336640622066 -4.573733113238176 -7.259130988732395 0 0 0
1515 361 2 0.5564 6.989050588783229 -4.089409989204198 -5.439410943727053 -1 0 0
634 68 1 -1.1128 6.623770163589739 -10.995294434503137 -7.115139729874316 0 0 0
635 68 2 0.5564 7.260556444234252 -11.235644738499547 -6.442111460333957 0 0 0
1513 361 1 -1.1128 7.724537367714917 -3.9978133511524865 -4.8336872704114455 -1 0 0
1514 361 2 0.5564 8.326597132715968 -4.700273869625453 -5.079258343059336 -1 0 0
583 51 1 -1.1128 -4.650504859954893 -4.070926915090042 -3.7178675755526944 0 0 0
584 51 2 0.5564 -4.462271741895334 -4.146791379447258 -4.653305883230375 0 0 0
568 46 1 -1.1128 -10.678738037657093 -3.2255869940069872 -9.493325102499304 1 0 0
569 46 2 0.5564 -9.730963445026566 -3.3561927707900074 -9.463369273341808 1 0 0
500 23 2 0.5564 -9.902438048728316 -2.97437339825594 -4.7314315636273445 1 0 0
515 28 2 0.5564 -4.8087381208465105 -3.555258289495711 -9.640815586487358 0 0 0
510 26 2 0.5564 -6.628079120355505 -0.6963551391243177 -9.3447043516072 0 0 0
556 42 1 -1.1128 -11.790564410993584 -1.8060680047744841 -6.881845048449752 1 0 0
557 42 2 0.5564 -11.466909396023892 -2.668342066490903 -6.621148353014109 1 0 0
508 26 1 -1.1128 -6.2095419950264885 0.15106758253704727 -9.496141765985731 0 0 0
509 26 2 0.5564 -5.274389413611907 -0.04794353543792184 -9.542142499951458 0 0 0
2387 0 3 1 -7.6969421745480044 1.8993536715128454 -9.468598041610651 1 0 0
948 172 2 0.5564 -7.932234821754515 -2.0578964040128516 -8.468699709783914 0 0 0
946 172 1 -1.1128 -8.107163296491988 -2.1598750479628723 -9.404238202121284 0 0 0
947 172 2 0.5564 -8.461265552996187 -1.3130833185622073 -9.675876290902146 0 0 0
1374 314 2 0.5564 -7.603604135081651 -3.560150194861479 -6.440244552510174 0 0 0
643 71 1 -1.1128 -7.028998948795931 -0.04129438816265527 -5.137363581145082 1 0 0
598 56 1 -1.1128 -5.80306718091241 3.3656075564671752 -9.58984631389683 0 0 0
600 56 2 0.5564 -5.108738257338457 2.96067008660468 -9.070072388680034 0 0 0
667 79 1 -1.1128 -8.532306491637831 3.872767789805319 -8.642364268325705 0 0 0
669 79 2 0.5564 -8.94108445715663 4.000707964607664 -7.7863479846801065 0 0 0
1013 194 2 0.5564 -7.669545988500197 2.739549040046341 -6.88499550850941 0 0 0
1012 194 1 -1.1128 -7.155657482652732 1.9428604557197344 -7.0170483088670546 0 0 0
717 95 2 0.5564 -10.007036099112247 4.278982627606894 -5.877565952208293 1 0 0
1014 194 2 0.5564 -6.246652908899756 2.2231958181180005 -6.9104898277524995 0 0 0
2400 0 4 -1 -9.758890077079487 0.4996609885110653 -9.084632562484094 1 0 0
2386 0 3 1 -11.748416471008095 -1.2148987432141747 -9.251852968719906 1 0 0
1071 213 2 0.5564 -11.25036529918471 0.5397509717482915 -6.39351648626016 1 0 0
644 71 2 0.5564 -7.214146086745026 0.6949297060109478 -5.720395760812017 1 0 0
1133 234 2 0.5564 -11.40579956629617 2.0050321080977342 -9.236958088310633 1 0 0
1069 213 1 -1.1128 -10.602218404499908 1.090640412648134 -5.954587833376921 1 0 0
1070 213 2 0.5564 -9.873806285076869 1.1436116972827386 -6.573329869799325 1 0 0
1372 314 1 -1.1128 -8.02027618325818 -2.7465014198192255 -6.724131746325117 0 0 0
599 56 2 0.5564 -5.4137553313916715 4.174728443881814 -9.92149602213401 0 0 0
1373 314 2 0.5564 -8.953346047475604 -2.8853960485275922 -6.561894978787746 0 0 0
1100 223 2 0.5564 -4.914484787925631 2.8153020037937257 -4.885363933579377 0 0 0
651 73 2 0.5564 -11.729280383595881 4.189255190755426 -9.526303941197693 0 0 0
527 32 2 0.5564 -4.873834601846035 -1.1871190368876898 -7.124177515233725 0 0 0
526 32 1 -1.1128 -4.672333775758456 -0.47714118825562896 -6.514619533152784 0 0 0
528 32 2 0.5564 -4.56773916815853 0.2945665787114951 -7.071179553849093 0 0 0
1032 200 2 0.5564 -7.282214416235374 3.064407086986472 -3.4223373329835614 0 0 0
715 95 1 -1.1128 -9.0553068396437 4.379298727277771 -5.897073579218421 1 0 0
456 8 2 0.5564 -7.886369927412939 -1.8784343168192406 -4.63522042048511 0 0 0
1099 223 1 -1.1128 -5.612434465063931 2.960834488531824 -4.2466790188148416 0 0 0
1101 223 2 0.5564 -5.236693284519878 2.679810427487732 -3.4123673525675087 0 0 0
1649 406 2 0.5564 -10.600000943818644 6.306592906388096 -3.0446981059339615 1 0 0
2398 0 4 -1 -3.9439481190833288 2.472755103688594 -7.319087449119053 0 0 0
1042 204 1 -1.1128 -2.4171836569649607 0.37198534935649663 -4.433097572075966 0 0 0
1094 221 2 0.5564 -0.11603262250944756 -1.5540408608722598 -5.491669184199143 0 0 0
458 9 2 0.5564 1.7194723839516544 -3.2324603014943873 -9.41652610561458 0 0 0
951 173 2 0.5564 -2.316527759758327 -4.319078955026193 -7.272400604444597 0 0 0
654 74 2 0.5564 1.7244132235346852 -1.114374966882512 -3.569463903458734 0 0 0
950 173 2 0.5564 -1.6859074211823712 -3.027829296621988 -6.796073495816639 0 0 0
652 74 1 -1.1128 1.4647606003911722 -1.6878642509966895 -4.290520388710584 0 0 0
949 173 1 -1.1128 -1.8173553789599375 -3.5621883782731114 -7.579280784324886 0 0 0
538 36 1 -1.1128 -3.730952900778457 -2.0907981723222844 -8.775871718041717 0 0 0
539 36 2 0.5564 -2.8846415473857947 -2.353176781311709 -8.413730235201713 0 0 0
540 36 2 0.5564 -3.5921085652272287 -1.1960900697077368 -9.08643822743284 0 0 0
459 9 2 0.5564 2.1517404711197834 -1.8779662831719879 -8.896539919048259 0 0 0
457 9 1 -1.1128 2.4811011428631446 -2.6571755043308967 -9.344408693556687 0 0 0
609 59 2 0.5564 1.7975112187493913 1.934626901026838 -4.350947326211574 0 0 0
608 59 2 0.5564 0.6582908063734977 1.3584780881591778 -5.164657907326766 0 0 0
678 82 2 0.5564 -1.7664638025427142 0.4503633256728021 -9.080654978009887 0 0 0
1537 369 1 -1.1128 -0.5482344193460834 2.45464115254642 -5.788473699737247 0 0 0
1539 369 2 0.5564 -0.4440865253496406 3.2307581436229684 -5.237994155376524 0 0 0
676 82 1 -1.1128 -2.7165731993545004 0.47801102286774194 -9.193613465325623 0 0 0
677 82 2 0.5564 -3.0331581922297453 0.9788279793492483 -8.441823452091418 0 0 0
592 54 1 -1.1128 1.525312882468638 -0.4698558494103434 -7.786305563874081 0 0 0
593 54 2 0.5564 1.2799673440225348 0.42472685414472927 -8.022439645843676 0 0 0
594 54 2 0.5564 2.017104147068724 -0.376407382413092 -6.970437435414126 0 0 0
607 59 1 -1.1128 1.5127141000486135 1.1359089596919834 -4.794988109022257 0 0 0
1538 369 2 0.5564 -1.4761010202442704 2.2311995109748732 -5.715198517320533 0 0 0
740 103 2 0.5564 -2.349852675582517 3.2935059053449316 -9.316221502888933 0 0 0
1183 251 1 -1.1128 3.380397825512431 1.8676077234013684 -6.983491560142034 0 0 0
1095 221 2 0.5564 -0.3946421358452503 -1.1226388787222472 -6.915805557305306 0 0 0
1093 221 1 -1.1128 -0.8094244024795723 -1.2156376598018646 -6.058169840686035 0 0 0
653 74 2 0.5564 2.287847373339676 -1.9214968997477884 -4.71967752376814 0 0 0
1044 204 2 0.5564 -3.0245146146119297 0.7923728737196126 -5.041912587878417 0 0 0
685 85 1 -1.1128 0.11728120129990821 1.767447979516814 -8.265093150178416 0 0 0
686 85 2 0.5564 0.824138185306744 2.3308355970210917 -8.580020882540753 0 0 0
687 85 2 0.5564 0.11278688253678361 1.895589227897511 -7.316519714416764 0 0 0
523 31 1 -1.1128 1.9180147147532125 3.528565138283192 -9.287701850851525 0 0 0
1182 250 2 0.5564 4.94741513966736 5.0991095866409495 -6.699054669606392 0 0 0
1185 251 2 0.5564 4.279494786931704 1.5502354348946796 -6.899043906965456 0 0 0
525 31 2 0.5564 2.1588698954584693 4.450639831125361 -9.198265244892898 0 0 0
1180 250 1 -1.1128 4.2809771512754375 4.8815005517936285 -6.047334953481563 0 0 0
1181 250 2 0.5564 4.17713829924847 3.9325689013152796 -6.1178905774113606 0 0 0
748 106 1 -1.1128 1.925617352765511 5.913314206099326 -6.566827338762934 0 0 0
749 106 2 0.5564 2.777449751581835 5.654034340777189 -6.215561857452558 0 0 0
1043 204 2 0.5564 -1.9025638310092343 -0.2221279679923901 -4.979382931558018 0 0 0
1132 234 1 -1.1128 11.92651403672117 2.2775441374371344 -9.371400072339023 0 0 0
533 34 2 0.5564 5.607172751055878 -2.8227469073565383 -9.501518465578934 0 0 0
1184 251 2 0.5564 2.977120882034333 1.674131193769481 -6.137225405905232 0 0 0
532 34 1 -1.1128 5.120219399452996 -2.022551013055005 -9.304554440294881 0 0 0
534 34 2 0.5564 4.205225677850654 -2.301273427479786 -9.26805524881951 0 0 0
558 42 2 0.5564 11.652814232487838 -1.682628858200791 -6.365716109421354 0 0 0
774 114 2 0.5564 -11.522654975209987 2.6370710428706317 -6.21494500559269 1 0 0
621 63 2 0.5564 6.907101252088666 -4.578167111619461 -10.092323495150893 0 0 0
1141 237 1 -1.1128 9.651412294860771 -2.288979978617971 -5.6532784738157735 0 0 0
1142 237 2 0.5564 8.913976959614443 -2.7565686283205344 -5.261128191466191 0 0 0
1134 234 2 0.5564 11.476958023695543 1.482209287758303 -9.657011579669703 0 0 0
640 70 1 -1.1128 8.261401561035774 -2.3328006473889413 -9.486214233939387 0 0 0
641 70 2 0.5564 7.804250696444403 -2.223717711753887 -8.652340189290282 0 0 0
642 70 2 0.5564 8.867044877480055 -1.5926613332700073 -9.526486470326894 0 0 0
1143 237 2 0.5564 9.245689232043075 -1.6387726493658128 -6.226733872969757 0 0 0
524 31 2 0.5564 2.7355599796176486 3.051937281890655 -9.143904840837253 0 0 0
647 72 2 0.5564 6.793089194015198 -0.3753674385626127 -9.469702786518823 0 0 0