LAMMPS data file via write_data, version 29 Aug 2024, timestep = 12000, units = real

1680 atoms
5 atom types
812 bonds
1 bond types
406 angles
1 angle types

-12.120000000000001 12.120000000000001 xlo xhi
-12.120000000000001 12.120000000000001 ylo yhi
-20.2 20.2 zlo zhi

Atom Type Labels

1 O
2 H
3 Na+
4 Cl-
5 WALL

Bond Type Labels

1 O-H

Angle Type Labels

1 H-O-H

Masses

1 15.9994
2 1.008
3 22.99
4 35.453
5 26.9815

Atoms # full

1 0 5 0 -12.120000000000001 -12.120000000000001 -16.16 0 0 0
2 0 5 0 -10.1 -10.1 -16.16 0 0 0
3 0 5 0 -10.1 -12.120000000000001 -14.14 0 0 0
4 0 5 0 -12.120000000000001 -10.1 -14.14 0 0 0
5 0 5 0 -8.08 -12.120000000000001 -16.16 0 0 0
6 0 5 0 -6.0600000000000005 -10.1 -16.16 0 0 0
7 0 5 0 -6.0600000000000005 -12.120000000000001 -14.14 0 0 0
8 0 5 0 -8.08 -10.1 -14.14 0 0 0
25 0 5 0 -12.120000000000001 -8.08 -16.16 0 0 0
26 0 5 0 -10.1 -6.0600000000000005 -16.16 0 0 0
27 0 5 0 -10.1 -8.08 -14.14 0 0 0
28 0 5 0 -12.120000000000001 -6.0600000000000005 -14.14 0 0 0
29 0 5 0 -8.08 -8.08 -16.16 0 0 0
30 0 5 0 -6.0600000000000005 -6.0600000000000005 -16.16 0 0 0
31 0 5 0 -6.0600000000000005 -8.08 -14.14 0 0 0
32 0 5 0 -8.08 -6.0600000000000005 -14.14 0 0 0
145 0 5 0 -12.120000000000001 -12.120000000000001 -12.120000000000001 0 0 0
146 0 5 0 -10.1 -10.1 -12.120000000000001 0 0 0
147 0 5 0 -8.08 -12.120000000000001 -12.120000000000001 0 0 0
148 0 5 0 -6.0600000000000005 -10.1 -12.120000000000001 0 0 0
157 0 5 0 -12.120000000000001 -8.08 -12.120000000000001 0 0 0
158 0 5 0 -10.1 -6.0600000000000005 -12.120000000000001 0 0 0
159 0 5 0 -8.08 -8.08 -12.120000000000001 0 0 0
160 0 5 0 -6.0600000000000005 -6.0600000000000005 -12.120000000000001 0 0 0
9 0 5 0 -4.04 -12.120000000000001 -16.16 0 0 0
10 0 5 0 -2.02 -10.1 -16.16 0 0 0
11 0 5 0 -2.02 -12.120000000000001 -14.14 0 0 0
12 0 5 0 -4.04 -10.1 -14.14 0 0 0
13 0 5 0 0 -12.120000000000001 -16.16 0 0 0
14 0 5 0 2.02 -10.1 -16.16 0 0 0
15 0 5 0 2.02 -12.120000000000001 -14.14 0 0 0
16 0 5 0 0 -10.1 -14.14 0 0 0
17 0 5 0 4.04 -12.120000000000001 -16.16 0 0 0
20 0 5 0 4.04 -10.1 -14.14 0 0 0
33 0 5 0 -4.04 -8.08 -16.16 0 0 0
34 0 5 0 -2.02 -6.0600000000000005 -16.16 0 0 0
35 0 5 0 -2.02 -8.08 -14.14 0 0 0
36 0 5 0 -4.04 -6.0600000000000005 -14.14 0 0 0
37 0 5 0 0 -8.08 -16.16 0 0 0
38 0 5 0 2.02 -6.0600000000000005 -16.16 0 0 0
39 0 5 0 2.02 -8.08 -14.14 0 0 0
40 0 5 0 0 -6.0600000000000005 -14.14 0 0 0
41 0 5 0 4.04 -8.08 -16.16 0 0 0
44 0 5 0 4.04 -6.0600000000000005 -14.14 0 0 0
149 0 5 0 -4.04 -12.120000000000001 -12.120000000000001 0 0 0
150 0 5 0 -2.02 -10.1 -12.120000000000001 0 0 0
151 0 5 0 0 -12.120000000000001 -12.120000000000001 0 0 0
152 0 5 0 2.02 -10.1 -12.120000000000001 0 0 0
153 0 5 0 4.04 -12.120000000000001 -12.120000000000001 0 0 0
161 0 5 0 -4.04 -8.08 -12.120000000000001 0 0 0
162 0 5 0 -2.02 -6.0600000000000005 -12.120000000000001 0 0 0
163 0 5 0 0 -8.08 -12.120000000000001 0 0 0
164 0 5 0 2.02 -6.0600000000000005 -12.120000000000001 0 0 0
165 0 5 0 4.04 -8.08 -12.120000000000001 0 0 0
18 0 5 0 6.0600000000000005 -10.1 -16.16 0 0 0
19 0 5 0 6.0600000000000005 -12.120000000000001 -14.14 0 0 0
21 0 5 0 8.08 -12.120000000000001 -16.16 0 0 0
22 0 5 0 10.1 -10.1 -16.16 0 0 0
23 0 5 0 10.1 -12.120000000000001 -14.14 0 0 0
24 0 5 0 8.08 -10.1 -14.14 0 0 0
42 0 5 0 6.0600000000000005 -6.0600000000000005 -16.16 0 0 0
43 0 5 0 6.0600000000000005 -8.08 -14.14 0 0 0
45 0 5 0 8.08 -8.08 -16.16 0 0 0
46 0 5 0 10.1 -6.0600000000000005 -16.16 0 0 0
47 0 5 0 10.1 -8.08 -14.14 0 0 0
48 0 5 0 8.08 -6.0600000000000005 -14.14 0 0 0
154 0 5 0 6.0600000000000005 -10.1 -12.120000000000001 0 0 0
155 0 5 0 8.08 -12.120000000000001 -12.120000000000001 0 0 0
156 0 5 0 10.1 -10.1 -12.120000000000001 0 0 0
166 0 5 0 6.0600000000000005 -6.0600000000000005 -12.120000000000001 0 0 0
167 0 5 0 8.08 -8.08 -12.120000000000001 0 0 0
168 0 5 0 10.1 -6.0600000000000005 -12.120000000000001 0 0 0
49 0 5 0 -12.120000000000001 -4.04 -16.16 0 0 0
50 0 5 0 -10.1 -2.02 -16.16 0 0 0
51 0 5 0 -10.1 -4.04 -14.14 0 0 0
52 0 5 0 -12.120000000000001 -2.02 -14.14 0 0 0
53 0 5 0 -8.08 -4.04 -16.16 0 0 0
54 0 5 0 -6.0600000000000005 -2.02 -16.16 0 0 0
55 0 5 0 -6.0600000000000005 -4.04 -14.14 0 0 0
56 0 5 0 -8.08 -2.02 -14.14 0 0 0
73 0 5 0 -12.120000000000001 0 -16.16 0 0 0
74 0 5 0 -10.1 2.02 -16.16 0 0 0
75 0 5 0 -10.1 0 -14.14 0 0 0
76 0 5 0 -12.120000000000001 2.02 -14.14 0 0 0
77 0 5 0 -8.08 0 -16.16 0 0 0
78 0 5 0 -6.0600000000000005 2.02 -16.16 0 0 0
79 0 5 0 -6.0600000000000005 0 -14.14 0 0 0
80 0 5 0 -8.08 2.02 -14.14 0 0 0
97 0 5 0 -12.120000000000001 4.04 -16.16 0 0 0
99 0 5 0 -10.1 4.04 -14.14 0 0 0
101 0 5 0 -8.08 4.04 -16.16 0 0 0
103 0 5 0 -6.0600000000000005 4.04 -14.14 0 0 0
169 0 5 0 -12.120000000000001 -4.04 -12.120000000000001 0 0 0
170 0 5 0 -10.1 -2.02 -12.120000000000001 0 0 0
171 0 5 0 -8.08 -4.04 -12.120000000000001 0 0 0
172 0 5 0 -6.0600000000000005 -2.02 -12.120000000000001 0 0 0
181 0 5 0 -12.120000000000001 0 -12.120000000000001 0 0 0
182 0 5 0 -10.1 2.02 -12.120000000000001 0 0 0
183 0 5 0 -8.08 0 -12.120000000000001 0 0 0
184 0 5 0 -6.0600000000000005 2.02 -12.120000000000001 0 0 0
193 0 5 0 -12.120000000000001 4.04 -12.120000000000001 0 0 0
195 0 5 0 -8.08 4.04 -12.120000000000001 0 0 0
57 0 5 0 -4.04 -4.04 -16.16 0 0 0
58 0 5 0 -2.02 -2.02 -16.16 0 0 0
59 0 5 0 -2.02 -4.04 -14.14 0 0 0
60 0 5 0 -4.04 -2.02 -14.14 0 0 0
61 0 5 0 0 -4.04 -16.16 0 0 0
62 0 5 0 2.02 -2.02 -16.16 0 0 0
63 0 5 0 2.02 -4.04 -14.14 0 0 0
64 0 5 0 0 -2.02 -14.14 0 0 0
65 0 5 0 4.04 -4.04 -16.16 0 0 0
68 0 5 0 4.04 -2.02 -14.14 0 0 0
81 0 5 0 -4.04 0 -16.16 0 0 0
82 0 5 0 -2.02 2.02 -16.16 0 0 0
83 0 5 0 -2.02 0 -14.14 0 0 0
84 0 5 0 -4.04 2.02 -14.14 0 0 0
85 0 5 0 0 0 -16.16 0 0 0
86 0 5 0 2.02 2.02 -16.16 0 0 0
87 0 5 0 2.02 0 -14.14 0 0 0
88 0 5 0 0 2.02 -14.14 0 0 0
89 0 5 0 4.04 0 -16.16 0 0 0
92 0 5 0 4.04 2.02 -14.14 0 0 0
105 0 5 0 -4.04 4.04 -16.16 0 0 0
107 0 5 0 -2.02 4.04 -14.14 0 0 0
109 0 5 0 0 4.04 -16.16 0 0 0
111 0 5 0 2.02 4.04 -14.14 0 0 0
113 0 5 0 4.04 4.04 -16.16 0 0 0
173 0 5 0 -4.04 -4.04 -12.120000000000001 0 0 0
174 0 5 0 -2.02 -2.02 -12.120000000000001 0 0 0
175 0 5 0 0 -4.04 -12.120000000000001 0 0 0
176 0 5 0 2.02 -2.02 -12.120000000000001 0 0 0
177 0 5 0 4.04 -4.04 -12.120000000000001 0 0 0
185 0 5 0 -4.04 0 -12.120000000000001 0 0 0
186 0 5 0 -2.02 2.02 -12.120000000000001 0 0 0
187 0 5 0 0 0 -12.120000000000001 0 0 0
188 0 5 0 2.02 2.02 -12.120000000000001 0 0 0
189 0 5 0 4.04 0 -12.120000000000001 0 0 0
197 0 5 0 -4.04 4.04 -12.120000000000001 0 0 0
199 0 5 0 0 4.04 -12.120000000000001 0 0 0
201 0 5 0 4.04 4.04 -12.120000000000001 0 0 0
66 0 5 0 6.0600000000000005 -2.02 -16.16 0 0 0
67 0 5 0 6.0600000000000005 -4.04 -14.14 0 0 0
69 0 5 0 8.08 -4.04 -16.16 0 0 0
70 0 5 0 10.1 -2.02 -16.16 0 0 0
71 0 5 0 10.1 -4.04 -14.14 0 0 0
72 0 5 0 8.08 -2.02 -14.14 0 0 0
90 0 5 0 6.0600000000000005 2.02 -16.16 0 0 0
91 0 5 0 6.0600000000000005 0 -14.14 0 0 0
93 0 5 0 8.08 0 -16.16 0 0 0
94 0 5 0 10.1 2.02 -16.16 0 0 0
95 0 5 0 10.1 0 -14.14 0 0 0
96 0 5 0 8.08 2.02 -14.14 0 0 0
115 0 5 0 6.0600000000000005 4.04 -14.14 0 0 0
117 0 5 0 8.08 4.04 -16.16 0 0 0
119 0 5 0 10.1 4.04 -14.14 0 0 0
178 0 5 0 6.0600000000000005 -2.02 -12.120000000000001 0 0 0
179 0 5 0 8.08 -4.04 -12.120000000000001 0 0 0
180 0 5 0 10.1 -2.02 -12.120000000000001 0 0 0
190 0 5 0 6.0600000000000005 2.02 -12.120000000000001 0 0 0
191 0 5 0 8.08 0 -12.120000000000001 0 0 0
192 0 5 0 10.1 2.02 -12.120000000000001 0 0 0
203 0 5 0 8.08 4.04 -12.120000000000001 0 0 0
98 0 5 0 -10.1 6.0600000000000005 -16.16 0 0 0
100 0 5 0 -12.120000000000001 6.0600000000000005 -14.14 0 0 0
102 0 5 0 -6.0600000000000005 6.0600000000000005 -16.16 0 0 0
104 0 5 0 -8.08 6.0600000000000005 -14.14 0 0 0
121 0 5 0 -12.120000000000001 8.08 -16.16 0 0 0
122 0 5 0 -10.1 10.1 -16.16 0 0 0
123 0 5 0 -10.1 8.08 -14.14 0 0 0
124 0 5 0 -12.120000000000001 10.1 -14.14 0 0 0
125 0 5 0 -8.08 8.08 -16.16 0 0 0
126 0 5 0 -6.0600000000000005 10.1 -16.16 0 0 0
127 0 5 0 -6.0600000000000005 8.08 -14.14 0 0 0
128 0 5 0 -8.08 10.1 -14.14 0 0 0
194 0 5 0 -10.1 6.0600000000000005 -12.120000000000001 0 0 0
196 0 5 0 -6.0600000000000005 6.0600000000000005 -12.120000000000001 0 0 0
205 0 5 0 -12.120000000000001 8.08 -12.120000000000001 0 0 0
206 0 5 0 -10.1 10.1 -12.120000000000001 0 0 0
207 0 5 0 -8.08 8.08 -12.120000000000001 0 0 0
208 0 5 0 -6.0600000000000005 10.1 -12.120000000000001 0 0 0
106 0 5 0 -2.02 6.0600000000000005 -16.16 0 0 0
108 0 5 0 -4.04 6.0600000000000005 -14.14 0 0 0
110 0 5 0 2.02 6.0600000000000005 -16.16 0 0 0
112 0 5 0 0 6.0600000000000005 -14.14 0 0 0
116 0 5 0 4.04 6.0600000000000005 -14.14 0 0 0
129 0 5 0 -4.04 8.08 -16.16 0 0 0
130 0 5 0 -2.02 10.1 -16.16 0 0 0
131 0 5 0 -2.02 8.08 -14.14 0 0 0
132 0 5 0 -4.04 10.1 -14.14 0 0 0
133 0 5 0 0 8.08 -16.16 0 0 0
134 0 5 0 2.02 10.1 -16.16 0 0 0
135 0 5 0 2.02 8.08 -14.14 0 0 0
136 0 5 0 0 10.1 -14.14 0 0 0
137 0 5 0 4.04 8.08 -16.16 0 0 0
140 0 5 0 4.04 10.1 -14.14 0 0 0
198 0 5 0 -2.02 6.0600000000000005 -12.120000000000001 0 0 0
200 0 5 0 2.02 6.0600000000000005 -12.120000000000001 0 0 0
209 0 5 0 -4.04 8.08 -12.120000000000001 0 0 0
210 0 5 0 -2.02 10.1 -12.120000000000001 0 0 0
211 0 5 0 0 8.08 -12.120000000000001 0 0 0
212 0 5 0 2.02 10.1 -12.120000000000001 0 0 0
213 0 5 0 4.04 8.08 -12.120000000000001 0 0 0
114 0 5 0 6.0600000000000005 6.0600000000000005 -16.16 0 0 0
118 0 5 0 10.1 6.0600000000000005 -16.16 0 0 0
120 0 5 0 8.08 6.0600000000000005 -14.14 0 0 0
138 0 5 0 6.0600000000000005 10.1 -16.16 0 0 0
139 0 5 0 6.0600000000000005 8.08 -14.14 0 0 0
141 0 5 0 8.08 8.08 -16.16 0 0 0
142 0 5 0 10.1 10.1 -16.16 0 0 0
143 0 5 0 10.1 8.08 -14.14 0 0 0
144 0 5 0 8.08 10.1 -14.14 0 0 0
202 0 5 0 6.0600000000000005 6.0600000000000005 -12.120000000000001 0 0 0
204 0 5 0 10.1 6.0600000000000005 -12.120000000000001 0 0 0
214 0 5 0 6.0600000000000005 10.1 -12.120000000000001 0 0 0
215 0 5 0 8.08 8.08 -12.120000000000001 0 0 0
216 0 5 0 10.1 10.1 -12.120000000000001 0 0 0
583 51 1 -1.1128 -6.447410923513297 -7.55399584013164 -6.717085305766826 0 0 0
584 51 2 0.5564 -6.027749730485755 -6.761131075613387 -7.050974273064909 0 0 0
585 51 2 0.5564 -7.255033272471975 -7.630222694802361 -7.225187120876388 0 0 0
1396 322 1 -1.1128 -8.230040729811686 -6.410791617264833 -9.33972367129122 0 0 0
1397 322 2 0.5564 -7.553468695834735 -7.049831138931056 -9.563577798595443 0 0 0
1398 322 2 0.5564 -7.815612449416524 -5.5607337200744045 -9.487651517503046 0 0 0
650 73 2 0.5564 -9.040283966437388 -5.665606907954943 -7.734983182737863 0 0 0
649 73 1 -1.1128 -9.250746356135922 -5.383730259225241 -6.844768009392845 0 0 0
592 54 1 -1.1128 -4.767063481088016 -5.1951410802499245 -7.079619494083975 0 0 0
651 73 2 0.5564 -10.169585496841476 -5.625030517610947 -6.727547390592689 0 0 0
742 104 1 -1.1128 -4.915453002463596 -8.708655550871363 -4.895590005418835 0 1 0
566 45 2 0.5564 11.540216571825296 -5.970171588456811 -8.307820451849285 0 0 0
492 20 2 0.5564 -10.319568692063914 -10.609117392024714 -6.454583544331734 1 0 0
568 46 1 -1.1128 -6.315063863760736 -8.399185714750004 -9.540999402464285 1 0 0
570 46 2 0.5564 -6.918985280431624 -9.141306354218141 -9.568711196783385 1 0 0
569 46 2 0.5564 -5.966771005882002 -8.406371242896391 -8.649443180972376 1 0 0
516 28 2 0.5564 -9.596797885681998 -9.165905375637584 -9.793123109943389 0 0 0
743 104 2 0.5564 -5.493169918052463 -8.301490366593548 -5.541106543825288 0 1 0
744 104 2 0.5564 -5.465774520577097 -9.356898341432212 -4.456091000695161 0 1 0
491 20 2 0.5564 -9.18373989537468 -10.081742526884831 -7.3052679325958 1 0 0
490 20 1 -1.1128 -9.750664147254051 -9.848067726100721 -6.57026804098687 1 0 0
1722 430 2 0.5564 -7.608496294614284 -10.749942622114045 -4.218109969005972 1 1 0
594 54 2 0.5564 -5.112006850081798 -4.515327002823051 -7.658496731818988 0 0 0
508 26 1 -1.1128 -8.271662754706965 -7.559228000849609 -4.604819897517863 0 0 0
509 26 2 0.5564 -7.844643814532704 -8.404075338323242 -4.462976069135865 0 0 0
607 59 1 -1.1128 -4.264615924855447 -5.276517981048111 -4.232612115817585 0 0 0
514 28 1 -1.1128 -10.120359066656821 -8.38937362574576 -9.59535029779557 0 0 0
458 9 2 0.5564 -6.981195177096296 -10.790943904587992 -7.325143864569218 0 0 0
950 173 2 0.5564 -5.030918182590154 -9.706863108262967 -9.3581581545054 0 0 0
609 59 2 0.5564 -4.443186550562967 -5.246148199142125 -5.1725174669727885 0 0 0
2387 0 3 1 -10.563959682073712 -8.248292306597024 -5.0942273105094555 1 0 0
515 28 2 0.5564 -9.500201572909585 -7.662114164542642 -9.647602124622725 0 0 0
1012 194 1 -1.1128 -6.764298282155533 -3.752553941375916 -8.313533585755556 0 0 0
1013 194 2 0.5564 -6.8485316469703825 -3.504564562231589 -7.392860996027743 0 0 0
2393 0 4 -1 -7.894373107220092 -10.769475252637406 -9.159294648666304 0 1 0
459 9 2 0.5564 -5.502431561837717 -10.553811768123518 -7.103961212309796 0 0 0
457 9 1 -1.1128 -6.297299399093261 -10.845784559922974 -6.657677793444674 0 0 0
593 54 2 0.5564 -3.9699195256644675 -5.498523180917627 -7.514076276346764 0 0 0
635 68 2 0.5564 -11.613334086655659 -9.179716269082935 -9.417133581774936 1 0 0
2400 0 4 -1 -12.039792446534877 -6.335561767020804 -5.9196294242818395 1 0 0
608 59 2 0.5564 -5.025146313316949 -4.857156991740749 -3.8301673143674506 0 0 0
449 6 2 0.5564 -11.233817058878506 -11.435878786620238 -9.60153735338576 0 0 0
450 6 2 0.5564 -9.767708893311402 -11.813263227849895 -9.599793233742746 0 0 0
501 23 2 0.5564 -11.248704559732307 -4.752878712391414 -4.329222457285786 1 0 0
815 128 2 0.5564 -6.287611494671609 -12.076411330222994 -3.94265900947789 0 1 0
539 36 2 0.5564 -3.497055388329431 -9.034172812691736 -5.8096487195842235 0 0 0
951 173 2 0.5564 -4.371332772577819 -11.04572821313871 -9.104618121444394 0 0 0
949 173 1 -1.1128 -4.3717071831369685 -10.134501842445497 -8.81153410606526 0 0 0
538 36 1 -1.1128 -2.7783070727816024 -9.53243107741151 -6.19871352856998 0 0 0
540 36 2 0.5564 -2.704657747811388 -9.191259281195103 -7.090010016388257 0 0 0
1537 369 1 -1.1128 -2.3076681253473206 -5.898011988416609 -8.243337942792092 0 0 0
1538 369 2 0.5564 -1.9247135623056726 -5.660251954219874 -7.398916346767146 0 0 0
526 32 1 -1.1128 -1.9597697279266206 -8.61429113563403 -9.029897720794382 0 0 0
527 32 2 0.5564 -2.8019938134726163 -9.026510951359008 -9.222161432686416 0 0 0
528 32 2 0.5564 -1.3336758074379422 -9.338320228553101 -9.025406691464385 0 0 0
460 10 1 -1.1128 -0.48227144516035714 -10.820182205876126 -9.317995858811804 0 0 0
462 10 2 0.5564 -0.7798455989348502 -10.99311743777447 -10.211178315399716 0 0 0
535 35 1 -1.1128 1.2209834999559006 -9.267493431396318 -7.427984452673823 0 0 0
536 35 2 0.5564 1.392434139509521 -10.065507661268994 -7.927994309851051 0 0 0
537 35 2 0.5564 1.4966905903605014 -8.557295138845321 -8.007497984807122 0 0 0
964 178 1 -1.1128 2.3615830422428177 -5.001316084748204 -6.0871539768591285 0 0 0
966 178 2 0.5564 1.8775127378330092 -4.2344143889504595 -5.7809357787298055 0 0 0
673 81 1 -1.1128 1.9216533220966885 -7.822995216108776 -9.563511690416098 0 0 0
675 81 2 0.5564 0.9983512858411082 -7.944286197142309 -9.784947373025847 0 0 0
674 81 2 0.5564 1.9975017737035714 -6.892534594182248 -9.352035945000129 0 0 0
965 178 2 0.5564 2.2393155602574306 -4.998958172193982 -7.036510058423793 0 0 0
954 174 2 0.5564 -1.3571409482763845 -8.782970700570063 -5.543528705875392 0 0 0
957 175 2 0.5564 -1.82662917917279 12.067687614938174 -7.911488424050617 0 -1 0
952 174 1 -1.1128 -0.6343491340223796 -8.157724993746367 -5.489939691075025 0 0 0
986 185 2 0.5564 3.295919129324732 -6.342519932396036 -5.47457255188063 0 0 0
955 175 1 -1.1128 -1.881646635558811 11.63118131923049 -7.061390086512009 0 -1 0
956 175 2 0.5564 -2.466606688461849 -12.054804500519275 -6.544551746858501 0 0 0
953 174 2 0.5564 -0.09321906351065509 -8.35024767444153 -6.255671587083797 0 0 0
1539 369 2 0.5564 -1.9307646845926898 -6.754422489660038 -8.445171305959773 0 0 0
619 63 1 -1.1128 2.4101783046939067 -5.385048348910319 -8.660769011597903 0 0 0
621 63 2 0.5564 3.363826843813162 -5.342554174373562 -8.73134226479562 0 0 0
452 7 2 0.5564 -0.24843119877539713 -12.044078579798184 -6.135134652615047 0 0 0
1455 341 2 0.5564 -1.2786234873910303 -6.432206472377345 -5.408245455004818 0 0 0
1453 341 1 -1.1128 -1.7337912398760649 -5.608555279186888 -5.583325118236972 0 0 0
1454 341 2 0.5564 -2.3437153358537763 -5.511270175923426 -4.852052212207538 0 0 0
488 19 2 0.5564 2.2176563792085195 -9.923259886967186 -5.664191421832198 0 0 0
620 63 2 0.5564 2.1090140860164728 -4.526622025286272 -8.958487364717893 0 0 0
487 19 1 -1.1128 2.9789760630553643 -9.754728516132305 -5.1090145393016515 0 0 0
489 19 2 0.5564 2.7189686952087957 -10.069334465073684 -4.2431905407318355 0 0 0
524 31 2 0.5564 -2.2236417447733268 -4.296725598448654 -9.190751069270801 0 0 0
1035 201 2 0.5564 -1.5014196130526172 -3.6398157982922545 -5.426163556089798 0 0 0
963 177 2 0.5564 0.7976366622496837 -11.370764597737862 -3.9394118983851776 0 0 0
567 45 2 0.5564 12.030068612596756 -6.333664664824689 -9.693393625601928 0 0 0
565 45 1 -1.1128 11.277156264202098 -5.96908940698527 -9.228162766590692 0 0 0
541 37 1 -1.1128 5.550184617089164 -7.391807566359935 -7.533405160488394 0 0 0
542 37 2 0.5564 4.834114427221958 -7.065375715985573 -6.988503625926687 0 0 0
948 172 2 0.5564 11.622343089291371 -8.207201648519709 -6.71354572145861 -1 0 0
946 172 1 -1.1128 11.40969984074389 -9.13950986639171 -6.670930003094954 -1 0 0
470 13 2 0.5564 4.660181258420206 -9.287395498227932 -8.781120886851884 0 0 0
471 13 2 0.5564 4.281656624631347 -10.424801006715661 -9.705741389710473 0 0 0
543 37 2 0.5564 5.682855445978002 -6.70820588728258 -8.19015414451789 0 0 0
469 13 1 -1.1128 4.8759779520247015 -10.195997692809767 -8.991134411806643 0 0 0
1059 209 2 0.5564 8.237578118015165 -5.081626730105942 -6.054551585892203 0 0 0
484 18 1 -1.1128 8.396515888753129 -7.793260791374578 -7.256974421341397 0 0 0
486 18 2 0.5564 7.443495053654477 -7.713773946474491 -7.216169707594074 0 0 0
433 1 1 -1.1128 9.511401726198306 -6.219751225131115 -5.12197494442732 -1 0 0
553 41 1 -1.1128 7.946849692516947 -4.989496247759842 -9.370040559870159 0 0 0
555 41 2 0.5564 8.592571284787716 -5.690374820904876 -9.280347927379411 0 0 0
485 18 2 0.5564 8.718154841814995 -7.152432574356439 -6.622845539791876 0 0 0
554 41 2 0.5564 8.45944598113367 -4.221947623611775 -9.62370574984491 0 0 0
571 47 1 -1.1128 8.306011381686178 -10.918217532588967 -9.684718662833847 0 0 0
573 47 2 0.5564 8.532740587783998 -10.201646223442145 -10.277467590220033 0 0 0
997 189 1 -1.1128 9.914133545890232 -8.16011671009541 -9.649771917866696 0 0 0
999 189 2 0.5564 10.31225127593807 -7.291439837620501 -9.70575981053224 0 0 0
998 189 2 0.5564 9.345168137493742 -8.114277467246604 -8.881391149716885 0 0 0
435 1 2 0.5564 10.388177232697089 -5.996128014891469 -5.434207844431071 -1 0 0
572 47 2 0.5564 8.631780971542854 -10.63512560209866 -8.830338766402214 0 0 0
985 185 1 -1.1128 3.9623927732553046 -6.9665096985749 -5.187028570691171 0 0 0
987 185 2 0.5564 3.5559436942095335 -7.824615419325957 -5.3082129737195505 0 0 0
636 68 2 0.5564 11.16204663897898 -9.278179190307464 -9.787391140707996 0 0 0
947 172 2 0.5564 11.707348492650926 -9.492126631596232 -7.509558983089353 -1 0 0
479 16 2 0.5564 4.739666617441639 -10.943212537541978 -7.295490825976794 0 0 0
480 16 2 0.5564 4.4063702738431 -10.997844236296764 -5.819745548193994 0 0 0
478 16 1 -1.1128 5.055186378087975 -11.288869895246815 -6.460505708863406 0 0 0
704 91 2 0.5564 5.935350688243094 -4.902119881514782 -9.457954216230263 0 0 0
481 17 1 -1.1128 7.506756641511408 -10.182406012299035 -5.576580026566698 0 0 0
483 17 2 0.5564 6.844929323960698 -10.151946432177684 -6.267440857221575 0 0 0
482 17 2 0.5564 7.021447670569318 -10.431906655113885 -4.790159983416273 0 0 0
703 91 1 -1.1128 5.100386376304255 -4.965113601118613 -8.99416729363472 0 0 0
1143 237 2 0.5564 10.762176194138757 -3.708685791668398 -9.161707298981415 0 0 0
1142 237 2 0.5564 10.044433522919189 -2.56514011805293 -8.476839366840068 0 0 0
634 68 1 -1.1128 11.882697848955958 -9.781944334262434 -9.40908652110335 0 0 0
858 142 2 0.5564 8.810580207456304 -10.746845034471379 -6.5568332274287675 0 1 0
857 142 2 0.5564 10.151296138263548 -10.538690476947465 -7.228434184527254 0 1 0
434 1 2 0.5564 9.623932777044997 -7.055256233507369 -4.668653754414559 -1 0 0
644 71 2 0.5564 -8.259649965920687 -4.187551027904437 -5.890302748985986 1 0 0
643 71 1 -1.1128 -7.458391465380772 -3.702722822436221 -5.692418133804464 1 0 0
558 42 2 0.5564 -10.377910070728941 -3.2029283391534467 -8.007119372510626 1 0 0
454 8 1 -1.1128 -10.359063827982858 -2.266996920325847 -6.318669730752678 0 0 0
455 8 2 0.5564 -10.867148789562325 -2.798269514184664 -5.705619207270225 0 0 0
456 8 2 0.5564 -10.28820636266708 -1.4121635741142005 -5.893850930952775 0 0 0
645 71 2 0.5564 -7.721467896814379 -2.7828034604386644 -5.720185998538214 1 0 0
557 42 2 0.5564 -9.898220377129274 -2.902797256073511 -9.411296850601085 1 0 0
556 42 1 -1.1128 -10.663984046899259 -3.201166434132707 -8.920569125691346 1 0 0
580 50 1 -1.1128 -8.432939498698717 2.663234823084662 -9.333542097009168 0 0 0
581 50 2 0.5564 -7.695774993908688 2.0901054644140045 -9.544120101190272 0 0 0
582 50 2 0.5564 -9.109902498856007 2.072218123726721 -9.003917675685646 0 0 0
600 56 2 0.5564 -7.544414172656784 -0.9309881590225053 -3.9500102318387786 0 0 0
667 79 1 -1.1128 -8.564165125799574 0.5718055702049311 -6.297812450030023 0 0 0
668 79 2 0.5564 -8.381724141036381 1.5114472203105418 -6.302367495633538 0 0 0
669 79 2 0.5564 -8.955209171554573 0.39910739998363287 -7.154253824640238 0 0 0
1179 249 2 0.5564 -5.406249620863833 1.7504047127251658 -9.470707616266964 0 0 0
678 82 2 0.5564 -8.615316338505547 -1.1202651285164658 -9.114672503228661 0 0 0
725 98 2 0.5564 -8.868821438183616 4.408356196451647 -8.358608662166219 0 0 0
1014 194 2 0.5564 -7.090995513993715 -2.993937256669181 -8.797270598842351 0 0 0
1177 249 1 -1.1128 -5.8812056243064434 0.9193541831899883 -9.468791932741851 0 0 0
676 82 1 -1.1128 -8.20358472033987 -1.808505580228848 -9.63719915068818 0 0 0
677 82 2 0.5564 -7.407927968640003 -1.4038895041403419 -9.982811755843297 0 0 0
1178 249 2 0.5564 -5.4670572795214065 0.40784918512465207 -8.77375547417106 0 0 0
2397 0 4 -1 -10.356260297502159 0.33460671706520534 -8.804491685786523 1 0 0
741 103 2 0.5564 -5.051615334590227 0.810146531947186 -4.098035938479175 0 0 0
737 102 2 0.5564 -6.8226555784070575 5.084542619564076 -8.69068178696954 0 0 0
1070 213 2 0.5564 -10.354889631018569 1.4524498746619416 -5.551378999388682 1 0 0
598 56 1 -1.1128 -6.900186964421585 -0.7769785104556558 -4.641012541639754 0 0 0
599 56 2 0.5564 -7.311903923863606 -0.12917740119122864 -5.212917104097376 0 0 0
1071 213 2 0.5564 -11.853426288292523 1.6504440085277945 -5.467227926027348 1 0 0
1069 213 1 -1.1128 -11.058538270061442 1.652189488810214 -4.933953245534503 1 0 0
740 103 2 0.5564 -3.982370351379896 1.636985542451015 -3.4161652597033414 0 0 0
745 105 1 -1.1128 -3.8116945340852633 4.8161020030869315 -8.60092588098935 0 0 0
689 86 2 0.5564 -3.724116407660659 4.350167355701319 -3.4534443646288877 0 0 0
726 98 2 0.5564 -9.865628643925366 5.423141706217875 -7.84045710496088 0 0 0
715 95 1 -1.1128 -8.387625766121188 3.347176186961639 -5.6932036957476315 1 0 0
746 105 2 0.5564 -4.675693019022769 5.0578530796560015 -8.93453480117305 0 0 0
724 98 1 -1.1128 -8.939847059524098 5.183131736926094 -7.801015501234248 0 0 0
716 95 2 0.5564 -8.608299175969305 4.058548687869418 -6.294439311932743 1 0 0
1373 314 2 0.5564 -6.583843521907697 -3.70197137395289 -3.925482765897454 0 0 0
717 95 2 0.5564 -8.599439015532663 3.691772997303658 -4.825666924146098 1 0 0
1093 221 1 -1.1128 1.1231575860409269 -2.7880423183910836 -4.914422422617332 0 0 0
739 103 1 -1.1128 -4.105627928464458 0.9545487494600439 -4.075952686123774 0 0 0
735 101 2 0.5564 -3.5701841836618717 3.556292996486533 -6.044953610667044 0 0 0
747 105 2 0.5564 -3.2530450682804672 5.562318527531671 -8.818419732163616 0 0 0
1095 221 2 0.5564 1.4089938992413205 -1.957397683190437 -4.534213312005413 0 0 0
733 101 1 -1.1128 -3.010993859289011 3.211819195673753 -5.3486233403454335 0 0 0
734 101 2 0.5564 -3.476597414591847 2.4399441182594224 -5.026669791635612 0 0 0
534 34 2 0.5564 0.8608637842213618 -2.3894580206070644 -10.408837187019964 0 0 0
532 34 1 -1.1128 0.7699044332580178 -2.6906783086226542 -9.504832412367131 0 0 0
1033 201 1 -1.1128 -1.5219009188364736 -2.7417161127611376 -5.756662213720691 0 0 0
533 34 2 0.5564 -0.1176012461559152 -3.0462320344211826 -9.458495463211797 0 0 0
1034 201 2 0.5564 -1.4717488705498085 -2.8348814310997152 -6.707996475728719 0 0 0
652 74 1 -1.1128 1.834215099974878 -0.22227607924872933 -3.9878876911069536 0 0 0
523 31 1 -1.1128 -1.918027078892478 -3.5041108378872647 -9.631878489809385 0 0 0
525 31 2 0.5564 -2.4209589429448366 -3.4733142017479106 -10.44572310781542 0 0 0
653 74 2 0.5564 2.2493507855893853 0.3727120450256685 -3.3634812992373835 0 0 0
685 85 1 -1.1128 -4.355003087644122 -0.3369392030700516 -7.107278982969708 0 0 0
686 85 2 0.5564 -3.409052951541791 -0.4034024237206005 -6.976922359903461 0 0 0
687 85 2 0.5564 -4.7315580919120395 -0.5826979622010947 -6.262269609224921 0 0 0
1180 250 1 -1.1128 -1.7480567123148385 0.1321021832946776 -8.129420203249735 0 0 0
1181 250 2 0.5564 -1.9606913707868905 0.9172665244116082 -8.633935189778573 0 0 0
786 118 2 0.5564 -1.2626857869536585 0.9641281595537862 -6.63526662932783 0 0 0
1118 229 2 0.5564 4.3864282210004095 -3.0170168553271597 -10.140770723934706 0 0 0
1182 250 2 0.5564 -0.9626157576356411 -0.21793210325561604 -8.549884709640029 0 0 0
785 118 2 0.5564 -1.6742700242489856 2.1684952947617773 -5.815514486827407 0 0 0
784 118 1 -1.1128 -0.968394715064549 1.530852947303264 -5.92221147517001 0 0 0
825 131 2 0.5564 2.1677097998351633 -0.03145898187500004 -9.314630642178923 0 0 0
1026 198 2 0.5564 0.7653474071137937 1.7692376995076884 -6.2030454500867656 0 0 0
1025 198 2 0.5564 1.4395067683906348 0.9299543213079015 -7.267473832057106 0 0 0
823 131 1 -1.1128 1.4223001297229385 -0.1638118633561772 -8.728901196471096 0 0 0
824 131 2 0.5564 1.2969250412023394 -1.1125900755930043 -8.710656580037691 0 0 0
654 74 2 0.5564 1.7156880754261008 0.30408231584381706 -4.778539346296263 0 0 0
596 55 2 0.5564 -2.825874242712684 -2.2328233983795256 -4.494468849518433 0 0 0
1024 198 1 -1.1128 1.6046312506132472 1.3712968487829564 -6.434297650621451 0 0 0
1128 232 2 0.5564 -1.0169659519940726 0.8091203131144774 -4.301839018134296 0 0 0
1094 221 2 0.5564 0.2701234712820445 -2.5933793914304277 -5.302586041433162 0 0 0
1481 350 2 0.5564 4.82129844449552 -2.332307744121347 -4.282277078635703 0 0 0
748 106 1 -1.1128 3.3167227955702048 3.6197220756740487 -7.566391210574866 0 0 0
750 106 2 0.5564 2.732731975727689 2.9295240460492535 -7.252045437867548 0 0 0
1126 232 1 -1.1128 -1.0288305131059996 0.47356747591410747 -3.4054599688062983 0 0 0
1184 251 2 0.5564 0.3443167826097863 4.7932804974017165 -8.775977910322547 0 0 0
595 55 1 -1.1128 -3.5359345545034246 -2.057260626265099 -3.8770354567779477 0 0 0
597 55 2 0.5564 -4.113939579755202 -2.816365745824853 -3.9538568251703134 0 0 0
1058 209 2 0.5564 7.8419157913292326 -4.649671524139838 -7.450531992164968 0 0 0
1057 209 1 -1.1128 7.810659003543475 -4.372264681155632 -6.534944570677911 0 0 0
1141 237 1 -1.1128 10.227611641688869 -2.935045911934127 -9.340463941768736 0 0 0
705 91 2 0.5564 5.138431919202593 -4.271046988512514 -8.336097394450643 0 0 0
660 76 2 0.5564 -11.97634293069503 1.912044775684763 -9.237089646657724 0 0 0
658 76 1 -1.1128 11.806809999078661 2.752409674936362 -9.200903211323617 -1 0 0
1117 229 1 -1.1128 3.93972864345014 -2.182342680320984 -9.999312629249067 0 0 0
2386 0 3 1 12.074953447332774 -1.2955643085606243 -8.962401843664997 0 0 0
990 186 2 0.5564 9.964846985574875 -0.9476539579940493 -6.464282896886547 0 0 0
988 186 1 -1.1128 10.660462473845335 -1.5025262627792129 -6.817082762385845 0 0 0
1259 276 2 0.5564 11.291321199756165 -2.186200117853095 -3.802037330419172 -1 1 0
1134 234 2 0.5564 11.035283094799603 2.4956183049465084 -7.593927994459503 0 0 0
1119 229 2 0.5564 4.0691890720522865 -1.9954223467126897 -9.06951014885734 0 0 0
749 106 2 0.5564 4.19636999458363 3.2593447856537856 -7.45422662592475 0 0 0
989 186 2 0.5564 10.933765904526348 -2.044494317213979 -6.076942411124229 0 0 0
1049 206 2 0.5564 5.736851144062666 -2.2397570359253 -7.41489494405814 0 0 0
627 65 2 0.5564 5.313758946010173 0.20576367024973283 -10.186338868901824 0 0 0
616 62 1 -1.1128 5.317989552019929 1.7887834894236643 -7.164247619537392 0 0 0
641 70 2 0.5564 9.614373927562749 0.7938176051108161 -9.799325036191586 0 0 0
1050 206 2 0.5564 4.740244732983882 -3.0404529184387012 -6.60399584009403 0 0 0
625 65 1 -1.1128 5.706955007901448 0.7471857092976322 -9.501874920931161 0 0 0
691 87 1 -1.1128 7.574120397840087 -1.1526079823816093 -8.080809894619183 0 0 0
692 87 2 0.5564 6.939640457323076 -0.5736536917642473 -8.503277669962662 0 0 0
693 87 2 0.5564 7.95449056726076 -0.6218299792382362 -7.380934786528705 0 0 0
626 65 2 0.5564 6.555492707121918 1.0079306486953667 -9.85996387675578 0 0 0
1048 206 1 -1.1128 4.9284926048115505 -2.7460668757440962 -7.495136479346108 0 0 0
618 62 2 0.5564 6.123192742126075 1.5058427734701076 -6.730860657631065 0 0 0
640 70 1 -1.1128 10.022173695708636 -0.04154116440371817 -9.571055615260759 0 0 0
659 76 2 0.5564 11.574406337256745 2.9385926911342564 -10.110604409073275 -1 0 0
617 62 2 0.5564 5.352407747094186 1.3764851602391088 -8.027414739096313 0 0 0
642 70 2 0.5564 9.289234308730258 -0.6092305642359949 -9.332811057427566 0 0 0
646 72 1 -1.1128 8.245461086085891 2.117197435629789 -9.460573034562241 0 0 0
647 72 2 0.5564 8.315087151609035 2.9530919298897467 -9.921728798540526 0 0 0
648 72 2 0.5564 8.10242105754029 2.359103731926862 -8.54555785867474 0 0 0
702 90 2 0.5564 8.00918591181763 3.351467320523423 -5.209966029241282 0 0 0