LAMMPS data file via write_data, version 29 Aug 2024, timestep = 12000, units = real

1680 atoms
5 atom types
812 bonds
1 bond types
406 angles
1 angle types

-12.120000000000001 12.120000000000001 xlo xhi
-12.120000000000001 12.120000000000001 ylo yhi
-20.2 20.2 zlo zhi

Atom Type Labels

1 O
2 H
3 Na+
4 Cl-
5 WALL

Bond Type Labels

1 O-H

Angle Type Labels

1 H-O-H

Masses

1 15.9994
2 1.008
3 22.99
4 35.453
5 26.9815

Atoms # full

1 0 5 0 -12.120000000000001 -12.120000000000001 -16.16 0 0 0
2 0 5 0 -10.1 -10.1 -16.16 0 0 0
3 0 5 0 -10.1 -12.120000000000001 -14.14 0 0 0
4 0 5 0 -12.120000000000001 -10.1 -14.14 0 0 0
5 0 5 0 -8.08 -12.120000000000001 -16.16 0 0 0
6 0 5 0 -6.0600000000000005 -10.1 -16.16 0 0 0
7 0 5 0 -6.0600000000000005 -12.120000000000001 -14.14 0 0 0
8 0 5 0 -8.08 -10.1 -14.14 0 0 0
25 0 5 0 -12.120000000000001 -8.08 -16.16 0 0 0
26 0 5 0 -10.1 -6.0600000000000005 -16.16 0 0 0
27 0 5 0 -10.1 -8.08 -14.14 0 0 0
28 0 5 0 -12.120000000000001 -6.0600000000000005 -14.14 0 0 0
29 0 5 0 -8.08 -8.08 -16.16 0 0 0
30 0 5 0 -6.0600000000000005 -6.0600000000000005 -16.16 0 0 0
31 0 5 0 -6.0600000000000005 -8.08 -14.14 0 0 0
32 0 5 0 -8.08 -6.0600000000000005 -14.14 0 0 0
145 0 5 0 -12.120000000000001 -12.120000000000001 -12.120000000000001 0 0 0
146 0 5 0 -10.1 -10.1 -12.120000000000001 0 0 0
147 0 5 0 -8.08 -12.120000000000001 -12.120000000000001 0 0 0
148 0 5 0 -6.0600000000000005 -10.1 -12.120000000000001 0 0 0
157 0 5 0 -12.120000000000001 -8.08 -12.120000000000001 0 0 0
158 0 5 0 -10.1 -6.0600000000000005 -12.120000000000001 0 0 0
159 0 5 0 -8.08 -8.08 -12.120000000000001 0 0 0
160 0 5 0 -6.0600000000000005 -6.0600000000000005 -12.120000000000001 0 0 0
9 0 5 0 -4.04 -12.120000000000001 -16.16 0 0 0
10 0 5 0 -2.02 -10.1 -16.16 0 0 0
11 0 5 0 -2.02 -12.120000000000001 -14.14 0 0 0
12 0 5 0 -4.04 -10.1 -14.14 0 0 0
13 0 5 0 0 -12.120000000000001 -16.16 0 0 0
14 0 5 0 2.02 -10.1 -16.16 0 0 0
15 0 5 0 2.02 -12.120000000000001 -14.14 0 0 0
16 0 5 0 0 -10.1 -14.14 0 0 0
17 0 5 0 4.04 -12.120000000000001 -16.16 0 0 0
20 0 5 0 4.04 -10.1 -14.14 0 0 0
33 0 5 0 -4.04 -8.08 -16.16 0 0 0
34 0 5 0 -2.02 -6.0600000000000005 -16.16 0 0 0
35 0 5 0 -2.02 -8.08 -14.14 0 0 0
36 0 5 0 -4.04 -6.0600000000000005 -14.14 0 0 0
37 0 5 0 0 -8.08 -16.16 0 0 0
38 0 5 0 2.02 -6.0600000000000005 -16.16 0 0 0
39 0 5 0 2.02 -8.08 -14.14 0 0 0
40 0 5 0 0 -6.0600000000000005 -14.14 0 0 0
41 0 5 0 4.04 -8.08 -16.16 0 0 0
44 0 5 0 4.04 -6.0600000000000005 -14.14 0 0 0
149 0 5 0 -4.04 -12.120000000000001 -12.120000000000001 0 0 0
150 0 5 0 -2.02 -10.1 -12.120000000000001 0 0 0
151 0 5 0 0 -12.120000000000001 -12.120000000000001 0 0 0
152 0 5 0 2.02 -10.1 -12.120000000000001 0 0 0
153 0 5 0 4.04 -12.120000000000001 -12.120000000000001 0 0 0
161 0 5 0 -4.04 -8.08 -12.120000000000001 0 0 0
162 0 5 0 -2.02 -6.0600000000000005 -12.120000000000001 0 0 0
163 0 5 0 0 -8.08 -12.120000000000001 0 0 0
164 0 5 0 2.02 -6.0600000000000005 -12.120000000000001 0 0 0
165 0 5 0 4.04 -8.08 -12.120000000000001 0 0 0
18 0 5 0 6.0600000000000005 -10.1 -16.16 0 0 0
19 0 5 0 6.0600000000000005 -12.120000000000001 -14.14 0 0 0
21 0 5 0 8.08 -12.120000000000001 -16.16 0 0 0
22 0 5 0 10.1 -10.1 -16.16 0 0 0
23 0 5 0 10.1 -12.120000000000001 -14.14 0 0 0
24 0 5 0 8.08 -10.1 -14.14 0 0 0
42 0 5 0 6.0600000000000005 -6.0600000000000005 -16.16 0 0 0
43 0 5 0 6.0600000000000005 -8.08 -14.14 0 0 0
45 0 5 0 8.08 -8.08 -16.16 0 0 0
46 0 5 0 10.1 -6.0600000000000005 -16.16 0 0 0
47 0 5 0 10.1 -8.08 -14.14 0 0 0
48 0 5 0 8.08 -6.0600000000000005 -14.14 0 0 0
154 0 5 0 6.0600000000000005 -10.1 -12.120000000000001 0 0 0
155 0 5 0 8.08 -12.120000000000001 -12.120000000000001 0 0 0
156 0 5 0 10.1 -10.1 -12.120000000000001 0 0 0
166 0 5 0 6.0600000000000005 -6.0600000000000005 -12.120000000000001 0 0 0
167 0 5 0 8.08 -8.08 -12.120000000000001 0 0 0
168 0 5 0 10.1 -6.0600000000000005 -12.120000000000001 0 0 0
49 0 5 0 -12.120000000000001 -4.04 -16.16 0 0 0
50 0 5 0 -10.1 -2.02 -16.16 0 0 0
51 0 5 0 -10.1 -4.04 -14.14 0 0 0
52 0 5 0 -12.120000000000001 -2.02 -14.14 0 0 0
53 0 5 0 -8.08 -4.04 -16.16 0 0 0
54 0 5 0 -6.0600000000000005 -2.02 -16.16 0 0 0
55 0 5 0 -6.0600000000000005 -4.04 -14.14 0 0 0
56 0 5 0 -8.08 -2.02 -14.14 0 0 0
73 0 5 0 -12.120000000000001 0 -16.16 0 0 0
74 0 5 0 -10.1 2.02 -16.16 0 0 0
75 0 5 0 -10.1 0 -14.14 0 0 0
76 0 5 0 -12.120000000000001 2.02 -14.14 0 0 0
77 0 5 0 -8.08 0 -16.16 0 0 0
78 0 5 0 -6.0600000000000005 2.02 -16.16 0 0 0
79 0 5 0 -6.0600000000000005 0 -14.14 0 0 0
80 0 5 0 -8.08 2.02 -14.14 0 0 0
97 0 5 0 -12.120000000000001 4.04 -16.16 0 0 0
99 0 5 0 -10.1 4.04 -14.14 0 0 0
101 0 5 0 -8.08 4.04 -16.16 0 0 0
103 0 5 0 -6.0600000000000005 4.04 -14.14 0 0 0
169 0 5 0 -12.120000000000001 -4.04 -12.120000000000001 0 0 0
170 0 5 0 -10.1 -2.02 -12.120000000000001 0 0 0
171 0 5 0 -8.08 -4.04 -12.120000000000001 0 0 0
172 0 5 0 -6.0600000000000005 -2.02 -12.120000000000001 0 0 0
181 0 5 0 -12.120000000000001 0 -12.120000000000001 0 0 0
182 0 5 0 -10.1 2.02 -12.120000000000001 0 0 0
183 0 5 0 -8.08 0 -12.120000000000001 0 0 0
184 0 5 0 -6.0600000000000005 2.02 -12.120000000000001 0 0 0
193 0 5 0 -12.120000000000001 4.04 -12.120000000000001 0 0 0
195 0 5 0 -8.08 4.04 -12.120000000000001 0 0 0
57 0 5 0 -4.04 -4.04 -16.16 0 0 0
58 0 5 0 -2.02 -2.02 -16.16 0 0 0
59 0 5 0 -2.02 -4.04 -14.14 0 0 0
60 0 5 0 -4.04 -2.02 -14.14 0 0 0
61 0 5 0 0 -4.04 -16.16 0 0 0
62 0 5 0 2.02 -2.02 -16.16 0 0 0
63 0 5 0 2.02 -4.04 -14.14 0 0 0
64 0 5 0 0 -2.02 -14.14 0 0 0
65 0 5 0 4.04 -4.04 -16.16 0 0 0
68 0 5 0 4.04 -2.02 -14.14 0 0 0
81 0 5 0 -4.04 0 -16.16 0 0 0
82 0 5 0 -2.02 2.02 -16.16 0 0 0
83 0 5 0 -2.02 0 -14.14 0 0 0
84 0 5 0 -4.04 2.02 -14.14 0 0 0
85 0 5 0 0 0 -16.16 0 0 0
86 0 5 0 2.02 2.02 -16.16 0 0 0
87 0 5 0 2.02 0 -14.14 0 0 0
88 0 5 0 0 2.02 -14.14 0 0 0
89 0 5 0 4.04 0 -16.16 0 0 0
92 0 5 0 4.04 2.02 -14.14 0 0 0
105 0 5 0 -4.04 4.04 -16.16 0 0 0
107 0 5 0 -2.02 4.04 -14.14 0 0 0
109 0 5 0 0 4.04 -16.16 0 0 0
111 0 5 0 2.02 4.04 -14.14 0 0 0
113 0 5 0 4.04 4.04 -16.16 0 0 0
173 0 5 0 -4.04 -4.04 -12.120000000000001 0 0 0
174 0 5 0 -2.02 -2.02 -12.120000000000001 0 0 0
175 0 5 0 0 -4.04 -12.120000000000001 0 0 0
176 0 5 0 2.02 -2.02 -12.120000000000001 0 0 0
177 0 5 0 4.04 -4.04 -12.120000000000001 0 0 0
185 0 5 0 -4.04 0 -12.120000000000001 0 0 0
186 0 5 0 -2.02 2.02 -12.120000000000001 0 0 0
187 0 5 0 0 0 -12.120000000000001 0 0 0
188 0 5 0 2.02 2.02 -12.120000000000001 0 0 0
189 0 5 0 4.04 0 -12.120000000000001 0 0 0
197 0 5 0 -4.04 4.04 -12.120000000000001 0 0 0
199 0 5 0 0 4.04 -12.120000000000001 0 0 0
201 0 5 0 4.04 4.04 -12.120000000000001 0 0 0
66 0 5 0 6.0600000000000005 -2.02 -16.16 0 0 0
67 0 5 0 6.0600000000000005 -4.04 -14.14 0 0 0
69 0 5 0 8.08 -4.04 -16.16 0 0 0
70 0 5 0 10.1 -2.02 -16.16 0 0 0
71 0 5 0 10.1 -4.04 -14.14 0 0 0
72 0 5 0 8.08 -2.02 -14.14 0 0 0
90 0 5 0 6.0600000000000005 2.02 -16.16 0 0 0
91 0 5 0 6.0600000000000005 0 -14.14 0 0 0
93 0 5 0 8.08 0 -16.16 0 0 0
94 0 5 0 10.1 2.02 -16.16 0 0 0
95 0 5 0 10.1 0 -14.14 0 0 0
96 0 5 0 8.08 2.02 -14.14 0 0 0
115 0 5 0 6.0600000000000005 4.04 -14.14 0 0 0
117 0 5 0 8.08 4.04 -16.16 0 0 0
119 0 5 0 10.1 4.04 -14.14 0 0 0
178 0 5 0 6.0600000000000005 -2.02 -12.120000000000001 0 0 0
179 0 5 0 8.08 -4.04 -12.120000000000001 0 0 0
180 0 5 0 10.1 -2.02 -12.120000000000001 0 0 0
190 0 5 0 6.0600000000000005 2.02 -12.120000000000001 0 0 0
191 0 5 0 8.08 0 -12.120000000000001 0 0 0
192 0 5 0 10.1 2.02 -12.120000000000001 0 0 0
203 0 5 0 8.08 4.04 -12.120000000000001 0 0 0
98 0 5 0 -10.1 6.0600000000000005 -16.16 0 0 0
100 0 5 0 -12.120000000000001 6.0600000000000005 -14.14 0 0 0
102 0 5 0 -6.0600000000000005 6.0600000000000005 -16.16 0 0 0
104 0 5 0 -8.08 6.0600000000000005 -14.14 0 0 0
121 0 5 0 -12.120000000000001 8.08 -16.16 0 0 0
122 0 5 0 -10.1 10.1 -16.16 0 0 0
123 0 5 0 -10.1 8.08 -14.14 0 0 0
124 0 5 0 -12.120000000000001 10.1 -14.14 0 0 0
125 0 5 0 -8.08 8.08 -16.16 0 0 0
126 0 5 0 -6.0600000000000005 10.1 -16.16 0 0 0
127 0 5 0 -6.0600000000000005 8.08 -14.14 0 0 0
128 0 5 0 -8.08 10.1 -14.14 0 0 0
194 0 5 0 -10.1 6.0600000000000005 -12.120000000000001 0 0 0
196 0 5 0 -6.0600000000000005 6.0600000000000005 -12.120000000000001 0 0 0
205 0 5 0 -12.120000000000001 8.08 -12.120000000000001 0 0 0
206 0 5 0 -10.1 10.1 -12.120000000000001 0 0 0
207 0 5 0 -8.08 8.08 -12.120000000000001 0 0 0
208 0 5 0 -6.0600000000000005 10.1 -12.120000000000001 0 0 0
106 0 5 0 -2.02 6.0600000000000005 -16.16 0 0 0
108 0 5 0 -4.04 6.0600000000000005 -14.14 0 0 0
110 0 5 0 2.02 6.0600000000000005 -16.16 0 0 0
112 0 5 0 0 6.0600000000000005 -14.14 0 0 0
116 0 5 0 4.04 6.0600000000000005 -14.14 0 0 0
129 0 5 0 -4.04 8.08 -16.16 0 0 0
130 0 5 0 -2.02 10.1 -16.16 0 0 0
131 0 5 0 -2.02 8.08 -14.14 0 0 0
132 0 5 0 -4.04 10.1 -14.14 0 0 0
133 0 5 0 0 8.08 -16.16 0 0 0
134 0 5 0 2.02 10.1 -16.16 0 0 0
135 0 5 0 2.02 8.08 -14.14 0 0 0
136 0 5 0 0 10.1 -14.14 0 0 0
137 0 5 0 4.04 8.08 -16.16 0 0 0
140 0 5 0 4.04 10.1 -14.14 0 0 0
198 0 5 0 -2.02 6.0600000000000005 -12.120000000000001 0 0 0
200 0 5 0 2.02 6.0600000000000005 -12.120000000000001 0 0 0
209 0 5 0 -4.04 8.08 -12.120000000000001 0 0 0
210 0 5 0 -2.02 10.1 -12.120000000000001 0 0 0
211 0 5 0 0 8.08 -12.120000000000001 0 0 0
212 0 5 0 2.02 10.1 -12.120000000000001 0 0 0
213 0 5 0 4.04 8.08 -12.120000000000001 0 0 0
114 0 5 0 6.0600000000000005 6.0600000000000005 -16.16 0 0 0
118 0 5 0 10.1 6.0600000000000005 -16.16 0 0 0
120 0 5 0 8.08 6.0600000000000005 -14.14 0 0 0
138 0 5 0 6.0600000000000005 10.1 -16.16 0 0 0
139 0 5 0 6.0600000000000005 8.08 -14.14 0 0 0
141 0 5 0 8.08 8.08 -16.16 0 0 0
142 0 5 0 10.1 10.1 -16.16 0 0 0
143 0 5 0 10.1 8.08 -14.14 0 0 0
144 0 5 0 8.08 10.1 -14.14 0 0 0
202 0 5 0 6.0600000000000005 6.0600000000000005 -12.120000000000001 0 0 0
204 0 5 0 10.1 6.0600000000000005 -12.120000000000001 0 0 0
214 0 5 0 6.0600000000000005 10.1 -12.120000000000001 0 0 0
215 0 5 0 8.08 8.08 -12.120000000000001 0 0 0
216 0 5 0 10.1 10.1 -12.120000000000001 0 0 0
508 26 1 -1.1128 -9.536680056104409 -7.580653783632624 -9.58269357334981 0 0 0
509 26 2 0.5564 -9.488917280739384 -8.53576874406454 -9.623996197874607 0 0 0
510 26 2 0.5564 -9.596811418359652 -7.383572071503119 -8.647934303392343 0 0 0
512 27 2 0.5564 -11.379372273588052 -6.684036537059274 -9.976187497555747 0 0 0
868 146 1 -1.1128 -9.653417078230909 -10.482711888721628 -8.848291318915757 0 0 0
535 35 1 -1.1128 -4.512605175021336 -5.907718661027788 -9.672356576838167 0 0 0
537 35 2 0.5564 -5.408776582007877 -5.820881172683296 -9.997268631375693 0 0 0
580 50 1 -1.1128 -7.386857367043158 -5.568700022323699 -9.621347520109522 0 0 0
581 50 2 0.5564 -8.033531191580185 -6.111158680697674 -10.07277124992445 0 0 0
582 50 2 0.5564 -7.470656161878796 -5.812467451248253 -8.699508599087299 0 0 0
814 128 1 -1.1128 -6.862638748361451 -8.71891388660463 -5.970686876921598 0 1 0
815 128 2 0.5564 -6.437229912371062 -8.653502555425918 -5.115712921727571 0 1 0
816 128 2 0.5564 -7.599928987514852 -9.312230246311017 -5.827122655698902 0 1 0
826 132 1 -1.1128 -7.11989098612579 -11.446422701137504 -9.471481780575035 0 1 0
828 132 2 0.5564 -6.7244366943146066 -11.30561106200083 -8.611237748757025 0 1 0
827 132 2 0.5564 -7.370976911550911 11.869895806214997 -9.471897516038736 0 0 0
870 146 2 0.5564 -8.797969237958712 -10.862717375822127 -9.048382981723911 0 0 0
454 8 1 -1.1128 -9.317018875403171 -4.888818401163617 -5.911664830853743 0 0 0
455 8 2 0.5564 -8.386787409845514 -4.681559755470153 -5.8225295158572035 0 0 0
456 8 2 0.5564 -9.331855537226556 -5.763274049793342 -6.300687964606582 0 0 0
573 47 2 0.5564 -9.026554459696802 -4.244591527745161 -9.570647261751636 1 0 0
869 146 2 0.5564 -9.712967569542155 -10.515011502927104 -7.893491698100421 0 0 0
516 28 2 0.5564 -11.402151543592764 -11.01981545742774 -5.09596920429167 0 0 0
458 9 2 0.5564 -4.936654768200393 -9.93815190479315 -8.11350124283057 0 0 0
1075 215 1 -1.1128 -11.596036803633329 -3.8100365990884852 -7.14301008821528 1 0 0
448 6 1 -1.1128 -9.67713011864853 -7.42053565500416 -6.907339401856263 0 0 0
449 6 2 0.5564 -10.631599387409773 -7.47874728941293 -6.864541545936901 0 0 0
450 6 2 0.5564 -9.369527353491744 -8.251171876345923 -6.544495299239787 0 0 0
960 176 2 0.5564 -5.636497729463082 -5.930527224851266 -7.264546742062453 0 0 0
1382 317 2 0.5564 -6.895620629083783 -4.111583628129175 -3.2493344419804164 0 0 0
1076 215 2 0.5564 -10.785596343332791 -4.152273783283975 -6.765794205638637 1 0 0
982 184 1 -1.1128 -5.953492209949446 -3.06301726336181 -6.38474019434829 0 0 0
459 9 2 0.5564 -6.028391921656652 -9.888006611267917 -7.065889393183814 0 0 0
457 9 1 -1.1128 -5.371010004624385 -10.470222434282531 -7.4468166955458575 0 0 0
1317 295 2 0.5564 -4.921730770181702 -10.965333310283965 -4.654568241362005 0 0 0
2400 0 4 -1 -9.260649176738987 -10.394389572403712 -5.854666259998689 1 0 0
983 184 2 0.5564 -5.814130501073095 -3.7468079715573617 -5.7295758087460715 0 0 0
511 27 1 -1.1128 -11.943973786842975 -6.093787372217637 -9.47712549304414 0 0 0
753 107 2 0.5564 -11.24259886168291 -11.759236173735983 -9.129391507154693 0 1 0
513 27 2 0.5564 -11.971232727486456 -6.473309290194051 -8.598802146949001 0 0 0
539 36 2 0.5564 -6.7442384699172875 -3.9441190500147383 -9.318002884952964 0 0 0
899 156 2 0.5564 -4.565570554746971 -12.013815524706727 -6.348365954351721 0 0 0
958 176 1 -1.1128 -6.515558154067522 -5.9458781602549795 -6.886064312244594 0 0 0
959 176 2 0.5564 -6.610033820945289 -6.831135108358692 -6.5344591205945015 0 0 0
526 32 1 -1.1128 -3.7789018594247703 -8.650077773968881 -8.846113602051473 0 0 0
527 32 2 0.5564 -3.236899790781209 -9.215017314731734 -9.396848488216902 0 0 0
536 35 2 0.5564 -4.373469626032411 -6.852098826416949 -9.60151011495242 0 0 0
608 59 2 0.5564 -2.916823552807555 -5.011667849009896 -9.870770927754508 0 0 0
528 32 2 0.5564 -3.161038382933398 -8.242048369389384 -8.239493071383121 0 0 0
952 174 1 -1.1128 -2.1650217155049845 -6.3735649343537135 -7.287862455287291 0 0 0
953 174 2 0.5564 -2.2155631810847267 -5.805097369404021 -8.056316756435786 0 0 0
607 59 1 -1.1128 -2.1225371650080738 -4.618786136946465 -9.508852567370097 0 0 0
954 174 2 0.5564 -1.2521515820731988 -6.6602357279603055 -7.2610359218425105 0 0 0
2399 0 4 -1 0.6498640039364192 -7.508541416103581 -6.784450860095319 0 0 0
523 31 1 -1.1128 0.14214586105110197 -6.0490628517094445 -9.711556721095281 0 0 0
524 31 2 0.5564 0.9089119795513428 -5.592975536027611 -10.058379310720746 0 0 0
525 31 2 0.5564 0.3966674149913231 -6.306894773936744 -8.825569522092612 0 0 0
462 10 2 0.5564 3.3972543916159643 -5.160542984365702 -9.196404637862209 0 0 0
470 13 2 0.5564 -0.3083434254752742 -8.71498316980443 -8.429443397214206 0 0 0
471 13 2 0.5564 -0.0817963217990166 -10.1293397166941 -8.919511855218698 0 0 0
627 65 2 0.5564 3.8985017429476247 -7.1316714519124575 -5.69139271357897 0 0 0
625 65 1 -1.1128 3.336032825462672 -6.358189143532645 -5.65157230465488 0 0 0
635 68 2 0.5564 2.038955336763817 -11.330543169214536 -9.243427927995883 0 0 0
626 65 2 0.5564 2.463185991089212 -6.6846728705395435 -5.870155491837883 0 0 0
634 68 1 -1.1128 1.1409942280622785 -11.414969373652132 -8.922850508469997 0 0 0
636 68 2 0.5564 0.8294296684875349 12.000520888900178 -9.29613732957953 0 -1 0
469 13 1 -1.1128 -0.7732420397060846 -9.492959463943519 -8.737427151086493 0 0 0
1471 347 1 -1.1128 2.209843152151533 -3.856235213318753 -6.842421362090471 0 0 0
1472 347 2 0.5564 2.5313915289874007 -4.211861491616052 -7.670894918310081 0 0 0
1685 418 2 0.5564 -1.2144391193639257 -10.497133653936661 -7.3991378981681235 0 1 0
1473 347 2 0.5564 1.5162391939758282 -4.45943956035703 -6.575419711217293 0 0 0
609 59 2 0.5564 -1.4135634535399266 -5.182831022489034 -9.817788336089064 0 0 0
1684 418 1 -1.1128 -1.354913927318974 -11.156782356075482 -6.719901351373326 0 1 0
966 178 2 0.5564 -0.09993309807409259 -6.795267900745117 -4.404652712148476 0 0 0
987 185 2 0.5564 0.9781954744749312 -8.651027372356674 -5.0628753956706545 0 0 0
1399 323 1 -1.1128 2.770543562702569 -9.568824014436018 -7.250371999151735 0 0 0
1401 323 2 0.5564 2.0187115622364824 -8.976537511021487 -7.263684569071721 0 0 0
1400 323 2 0.5564 2.4642228731782763 -10.334585257074133 -6.764564171040081 0 0 0
460 10 1 -1.1128 2.6592505930240122 -4.577017026521176 -9.372698892560729 0 0 0
900 156 2 0.5564 -3.1860369239688806 -11.577376372761654 -5.903053680948903 0 0 0
1686 418 2 0.5564 -1.0481315501023059 -11.97425124917197 -7.112152561291927 0 1 0
1338 302 2 0.5564 1.0706587996422807 -11.538991956514561 -5.452649653070325 0 0 0
1454 341 2 0.5564 -1.3182372379499414 -2.4049680336123167 -5.854523205747825 0 0 0
1542 370 2 0.5564 -1.0168771936759888 -11.34803870179278 -5.061007586324459 0 1 0
898 156 1 -1.1128 -3.9915423093187297 -11.983516804924006 -5.582986703926089 0 0 0
1336 302 1 -1.1128 1.7656758794633214 -11.690300974639472 -6.093187442578175 0 0 0
1337 302 2 0.5564 1.3030478694799907 -11.908776696054963 -6.902183952808558 0 0 0
1540 370 1 -1.1128 -0.868442063371145 -11.443577751886096 -4.120225398104693 0 1 0
1326 298 2 0.5564 -2.9469544981941267 -5.843448202277745 -5.541307356877262 0 0 0
1325 298 2 0.5564 -2.5811002013691526 -4.520658839666964 -4.902344075899919 0 0 0
1324 298 1 -1.1128 -2.956504564937327 -5.378673843867433 -4.7045723980317025 0 0 0
514 28 1 -1.1128 -12.110358135817929 -11.652526296259014 -4.976168345311234 0 0 0
1077 215 2 0.5564 12.020154021114152 -3.8158508258182735 -6.417021009977819 0 0 0
492 20 2 0.5564 -12.06570098130972 -7.288993936998622 -6.0590477405284995 1 0 0
997 189 1 -1.1128 4.992419388682198 -8.690760742867198 -5.693270962835497 0 0 0
999 189 2 0.5564 4.305396922890941 -9.063179753304864 -6.246024087793607 0 0 0
555 41 2 0.5564 3.5963835392927344 -10.156584718854283 -8.925027847305397 0 0 0
554 41 2 0.5564 4.138561315051864 -9.509311681697305 -10.181600978196313 0 0 0
998 189 2 0.5564 4.980696382736565 -9.22800533114624 -4.901145579480944 0 0 0
553 41 1 -1.1128 4.013281788347479 -10.360559073483424 -9.76217905799461 0 0 0
989 186 2 0.5564 6.6742523843656265 -8.738210164724867 -9.298082695355241 0 0 0
990 186 2 0.5564 6.954075619465543 -7.261535959811096 -9.47981709648908 0 0 0
988 186 1 -1.1128 6.306240918931315 -7.871353496146072 -9.126738337391302 0 0 0
1050 206 2 0.5564 6.64950744382963 -7.918803796144458 -6.330909806224767 0 0 0
751 107 1 -1.1128 -12.056389567059988 12.070164430253772 -8.837185110964125 0 0 0
1048 206 1 -1.1128 7.591672611427218 -7.9896685662243785 -6.484320448365609 0 0 0
1049 206 2 0.5564 7.675977166132725 -8.050501949880747 -7.4358580835547965 0 0 0
478 16 1 -1.1128 8.125813713506183 -10.649109621296809 -6.262909291080442 0 0 0
480 16 2 0.5564 8.099601379102108 -9.69227430892417 -6.259609241565101 0 0 0
542 37 2 0.5564 5.298616895437292 -6.473764142011746 -8.254045628691905 0 0 0
541 37 1 -1.1128 5.0763218878097645 -5.566896940154258 -8.043312077430123 0 0 0
543 37 2 0.5564 4.742857691986476 -5.603650753560821 -7.146828603799954 0 0 0
481 17 1 -1.1128 10.681665876595202 -10.059168618135109 -7.312345081759415 0 0 0
565 45 1 -1.1128 10.100198351645592 -8.12494481367456 -9.782897944266521 0 0 0
566 45 2 0.5564 9.435224823263255 -7.45744169540529 -9.951663042372992 0 0 0
567 45 2 0.5564 10.933308419410032 -7.663888000392671 -9.88080647780266 0 0 0
482 17 2 0.5564 10.427638924445876 -9.475871826688405 -8.027514274308873 0 0 0
1153 241 1 -1.1128 8.346496697297669 -6.095055056447497 -10.079043620249482 -1 0 0
1155 241 2 0.5564 8.419528137345717 -5.661227562688772 -10.929156498315022 -1 0 0
1154 241 2 0.5564 8.749010771420242 -5.483679010435395 -9.462250624129107 -1 0 0
483 17 2 0.5564 11.341101638431576 -10.636884356931299 -7.696559641951854 0 0 0
491 20 2 0.5564 11.723301244703336 -8.460240704774407 -6.905615629342945 0 0 0
494 21 2 0.5564 8.910093697579832 -9.473501097397053 -9.56530094970913 0 0 0
479 16 2 0.5564 8.927716420257378 -10.865579494392824 -6.73864516860155 0 0 0
490 20 1 -1.1128 11.905051892014642 -7.521397640120668 -6.947713229947121 0 0 0
864 144 2 0.5564 5.484765321040019 -11.426481354189267 -9.51061326218229 0 1 0
495 21 2 0.5564 8.694134541663281 -10.971776633978974 -9.544631481074378 0 0 0
493 21 1 -1.1128 8.251094058575122 -10.140712533353199 -9.37351924662105 0 0 0
833 134 2 0.5564 6.706056678482319 -11.49135467996954 -6.233387769263858 0 1 0
659 76 2 0.5564 8.6581001389273 -6.752754638988708 -5.688952477376931 -1 0 0
1071 213 2 0.5564 6.239489723723823 -4.16139936509618 -8.378575227685724 0 0 0
834 134 2 0.5564 5.894243218116821 11.898756007316235 -7.1876110609499175 0 0 0
832 134 1 -1.1128 6.098497654845374 12.009425169445302 -6.259029188268835 0 0 0
658 76 1 -1.1128 9.228766175384175 -6.1576239768155565 -5.20275128222341 -1 0 0
1350 306 2 0.5564 9.962377960130537 -10.070244272965905 -3.6899395346398722 0 0 0
571 47 1 -1.1128 -9.76966744347597 -3.7060809066626037 -9.842715711754051 1 0 0
1381 317 1 -1.1128 -7.715701625160821 -4.144184914559005 -3.7419155589127286 0 0 0
984 184 2 0.5564 -5.158759661741709 -2.5307163975466307 -6.3488540497445545 0 0 0
538 36 1 -1.1128 -6.594869832632537 -3.0265647346205458 -9.089935085039947 0 0 0
572 47 2 0.5564 -9.465631990025576 -2.804992675226685 -9.733930034120707 1 0 0
583 51 1 -1.1128 -7.277483408601244 -0.9376158787104383 -5.295569631212598 0 0 0
585 51 2 0.5564 -7.028439351201249 -0.21529356276516987 -5.872162479247935 0 0 0
584 51 2 0.5564 -6.946636011188586 -1.720780609222486 -5.735370546649052 0 0 0
540 36 2 0.5564 -6.324808773002644 -3.0483634636870827 -8.171880789466133 0 0 0
949 173 1 -1.1128 -6.892926356811876 1.893443219229532 -6.4875300838602765 0 0 0
592 54 1 -1.1128 -4.9959706498466465 1.460256943601014 -9.116840567706964 0 0 0
593 54 2 0.5564 -5.9227744134928155 1.2382762132203498 -9.206233949958584 0 0 0
594 54 2 0.5564 -4.532686044468093 0.658630941235587 -9.359729374592083 0 0 0
733 101 1 -1.1128 -7.692156685521794 1.2270429840796595 -9.366608352304034 0 0 0
649 73 1 -1.1128 -10.206431379883517 -1.500495295996115 -6.939427400500058 0 0 0
651 73 2 0.5564 -10.770285334691309 -2.2639676955000057 -6.815288583732921 0 0 0
734 101 2 0.5564 -8.068829903350585 0.3476317228529334 -9.335226883480948 0 0 0
735 101 2 0.5564 -7.783733619809632 1.5593487232148204 -8.473625484979838 0 0 0
950 173 2 0.5564 -5.994559190388283 2.2190468987256757 -6.431401257883214 0 0 0
951 173 2 0.5564 -7.352985738460434 2.3341252597662194 -5.773123677075244 0 0 0
653 74 2 0.5564 -4.404751442168577 -1.6972013557321326 -10.195333330826967 0 0 0
705 91 2 0.5564 -11.87193086983456 1.7202730768927363 -5.342174399854922 1 0 0
741 103 2 0.5564 -7.9898168742518845 2.297359652326281 -3.4454809620065547 0 0 0
902 157 2 0.5564 -4.461871493254275 4.127555858384711 -5.946851416836189 0 -1 0
901 157 1 -1.1128 -4.451944607683847 3.342839118526237 -6.494896077387248 0 -1 0
942 170 2 0.5564 -9.332728212331896 -1.0902716120039508 -8.564294403842428 0 0 0
940 170 1 -1.1128 -8.818851359112035 -1.2828909260908172 -9.348552153372381 0 0 0
739 103 1 -1.1128 -8.015604041725341 3.036779936253298 -4.052790197489274 0 0 0
740 103 2 0.5564 -8.9476451248175 3.2259953952594693 -4.161089707969591 0 0 0
941 170 2 0.5564 -8.052770899944754 -1.7557543297754856 -9.02335563404096 0 0 0
1109 226 2 0.5564 -5.666404170287602 -0.14587455402804642 -3.921845150640187 0 0 0
1218 262 2 0.5564 -7.73553675873453 3.009749665772783 -9.487389172274565 1 0 0
903 157 2 0.5564 -3.7738011396157343 2.788769644827356 -6.108424460486201 0 -1 0
703 91 1 -1.1128 11.69477825735302 1.1612053280584393 -4.954418694671195 0 0 0
704 91 2 0.5564 11.510402322141005 0.5057473285815637 -5.627183223017049 0 0 0
650 73 2 0.5564 -9.865082814112544 -1.3096554628244321 -6.065760899928691 0 0 0
487 19 1 -1.1128 -10.678078176577257 3.18467293579891 -4.551976849502878 1 -1 0
461 10 2 0.5564 3.049897539208533 -3.822433625943626 -9.813414950257004 0 0 0
605 58 2 0.5564 -1.3955615921820674 -2.748864253949078 -9.29535730540297 0 0 0
534 34 2 0.5564 3.1222544314209086 -4.034366780522698 -5.17205365623446 0 0 0
652 74 1 -1.1128 -4.06083391960544 -1.1309482660357262 -9.504457067871291 0 0 0
1108 226 1 -1.1128 -4.871451885123022 0.20819617354595726 -3.523201788861564 0 0 0
1095 221 2 0.5564 -3.896058891004822 -0.20374406752714364 -6.40898670848639 0 0 0
604 58 1 -1.1128 -1.3520137555290854 -1.815347428427869 -9.088278495164534 0 0 0
2385 0 3 1 -3.88829026641878 3.22305152934461 -8.663010671440805 0 0 0
654 74 2 0.5564 -3.114027843080927 -1.2693103908589307 -9.52987326914053 0 0 0
1398 322 2 0.5564 1.0547887164888363 -2.3516505524066114 -6.789925751241451 0 0 0
1455 341 2 0.5564 -2.755932566455406 -1.9898707504794833 -6.083916516753622 0 0 0
1453 341 1 -1.1128 -2.2031546133826256 -2.517371660692342 -5.507365511941771 0 0 0
532 34 1 -1.1128 3.2395967988922765 -3.6660606517353513 -4.296374942153801 0 0 0
606 58 2 0.5564 -0.589480267297757 -1.4975837182169227 -9.571807901412274 0 0 0
1396 322 1 -1.1128 0.23180911197586165 -1.8703189090985892 -6.704742157110008 0 0 0
1397 322 2 0.5564 -0.19638758785343666 -1.9748259399595731 -7.554423084923959 0 0 0
1093 221 1 -1.1128 -4.248130860686491 -1.043148785663185 -6.7050895428188095 0 0 0
1094 221 2 0.5564 -4.217692395625956 -0.9925679092826065 -7.660467444320201 0 0 0
667 79 1 -1.1128 -2.2712073676236364 1.4910086299218153 -7.669069378962299 0 0 0
668 79 2 0.5564 -1.7991969143240887 1.213947401123449 -6.883782735722177 0 0 0
669 79 2 0.5564 -1.6097026317526222 1.486218150210729 -8.360893330988974 0 0 0
1179 249 2 0.5564 0.23752702155993244 0.7881115179966446 -9.141224664109744 0 0 0
685 85 1 -1.1128 1.3335371567822236 -0.7160873928409126 -9.285861663136501 0 0 0
686 85 2 0.5564 2.0877251397753813 -0.9353840075968081 -9.832982559426004 0 0 0
687 85 2 0.5564 1.6573479208435322 -0.793867644579158 -8.388460626168616 0 0 0
688 86 1 -1.1128 3.7773687158141898 -2.0288007057103528 -9.862134301763913 0 0 0
690 86 2 0.5564 3.8797361636057803 -1.5704258766503236 -9.028080900551153 0 0 0
694 88 1 -1.1128 2.5030904751706617 1.352475305902703 -6.187758348625655 0 0 0
696 88 2 0.5564 2.1405509491005486 1.5306758689791673 -7.055537953274773 0 0 0
1180 250 1 -1.1128 2.5558500471409515 2.7533086336702812 -8.734490960329984 0 0 0
1178 249 2 0.5564 0.8735910205234341 2.156415491413465 -9.018497461781 0 0 0
1177 249 1 -1.1128 0.029203571028981117 1.7223665049670875 -9.140329888597927 0 0 0
1182 250 2 0.5564 3.412878859303172 2.409900499982418 -8.987086060008542 0 0 0
695 88 2 0.5564 2.6792259442387185 0.41162261076657414 -6.189833540093264 0 0 0
598 56 1 -1.1128 -1.8650758165989672 3.82408067281845 -9.628592567509237 0 0 0
600 56 2 0.5564 -1.2149244564856754 3.1260314376174243 -9.549457873328564 0 0 0
1181 250 2 0.5564 2.689066345412241 3.698060307676406 -8.657487903880865 0 0 0
1184 251 2 0.5564 -2.388695345928072 1.385757078355826 -4.353925788763521 0 0 0
1059 209 2 0.5564 3.1508070116965357 -1.926357901671817 -6.845340533014684 0 0 0
1057 209 1 -1.1128 3.5026135405157564 -1.0846779235058313 -7.135235023790903 0 0 0
1042 204 1 -1.1128 -0.9225512884124959 0.5628444847030244 -5.670831252636611 0 0 0
1043 204 2 0.5564 -0.24520184976223708 1.1158638654646011 -5.28147389560355 0 0 0
1569 379 2 0.5564 1.5562985877562447 2.1159042188224957 -4.71476767330172 0 0 0
1183 251 1 -1.1128 -3.175483719737504 1.9299950574871718 -4.32228862332615 0 0 0
1567 379 1 -1.1128 0.7486335746930826 2.3285475475868105 -4.247122681164097 0 0 0
1101 223 2 0.5564 -2.9118312186262996 -2.2258904762711276 -3.9061809822617892 0 0 0
1044 204 2 0.5564 -0.513609004767877 -0.2991644368262246 -5.747893981827426 0 0 0
2387 0 3 1 -12.089024807666961 -3.830458556803314 -9.285758889406516 1 0 0
557 42 2 0.5564 8.309622870270188 -3.2262231583703445 -5.294752494434748 0 0 0
556 42 1 -1.1128 7.35673836696679 -3.1454768846687418 -5.253243277267529 0 0 0
558 42 2 0.5564 7.057673439258782 -3.3779230884199234 -6.132311411288096 0 0 0
569 46 2 0.5564 9.871563518316622 -4.410934848495202 -5.6603969903612725 0 0 0
533 34 2 0.5564 4.117284372210708 -3.944260843201845 -4.034648073119273 0 0 0
689 86 2 0.5564 4.570589742457475 -1.8140177818609264 -10.352950407922371 0 0 0
1058 209 2 0.5564 4.423361462694971 -1.106816527544181 -6.874534080672094 0 0 0
791 120 2 0.5564 3.8026645719855448 2.9077048808895274 -6.582841316700531 0 0 0
568 46 1 -1.1128 9.90918336843015 -3.517635692655243 -6.002205665459041 0 0 0
570 46 2 0.5564 9.89018637397399 -3.6236163504403454 -6.95333083203444 0 0 0
2393 0 4 -1 9.744397085339868 -3.534602893426519 -9.032349798762581 -1 1 0
484 18 1 -1.1128 -10.78485602296952 3.01114481683251 -9.290888651923085 1 0 0
485 18 2 0.5564 -11.236379211570663 2.314336020040688 -9.767140787722287 1 0 0
486 18 2 0.5564 -11.325309478778 3.788256149952025 -9.43315574761941 1 0 0
1070 213 2 0.5564 7.47855294803285 -3.303293577968462 -8.520954966478744 0 0 0
1069 213 1 -1.1128 6.575623821376716 -3.2823425591979585 -8.203918858221334 0 0 0
716 95 2 0.5564 10.366557955582193 2.3784231676500616 -5.315338242663609 0 0 0
1143 237 2 0.5564 9.058717207754166 2.8807164552436815 -1.7637917318819833 0 0 0
644 71 2 0.5564 9.227313401861414 -0.6818218817861906 -4.947026639761716 0 0 0
643 71 1 -1.1128 9.651548212642695 -0.7165721937646666 -5.804376676696631 0 0 0
645 71 2 0.5564 10.052047808706293 -1.5852712946906449 -5.838927686236309 0 0 0
646 72 1 -1.1128 9.603089871426453 -0.5708765648650553 -9.226121292433549 0 0 0
647 72 2 0.5564 10.292028835396357 -0.30558292302075535 -8.616847804051242 0 0 0
648 72 2 0.5564 9.61229011291872 -1.527588583494833 -9.196979133671809 0 0 0
728 99 2 0.5564 6.92087369000595 2.3171007784142885 -5.236125518137915 -1 0 0
701 90 2 0.5564 4.876256300838189 -0.8439030650497268 -4.5014342395328475 0 0 0
770 113 2 0.5564 6.600736153063516 -1.2273515534917718 -8.719295018952364 0 0 0
748 106 1 -1.1128 5.241245743619111 1.6488250018702593 -9.213301378416377 0 0 0
749 106 2 0.5564 5.5864054049543705 2.195464891320584 -9.919191933147374 0 0 0