LAMMPS data file via write_data, version 29 Aug 2024, timestep = 125000, units = metal

720 atoms
2 atom types

2.3535666005714972 23.378405538927964 xlo xhi
-1.6556716763246389 22.24124938792403 ylo yhi
0.8616562650780804 19.72392144652011 zlo zhi

Atom Type Labels

1 Si
2 O

Masses

1 28.0855
2 15.9994

Atoms # full

78 9 2 -0.55 3.8723143973744296 -0.5586999495202898 4.370213973475574 1 1 0
595 67 1 1.1 3.468487628081773 0.11396772733709737 2.9784361180149075 1 -1 0
193 22 2 -0.55 7.494822425695467 2.244410527189709 1.769837050730308 0 0 1
270 30 2 -0.55 6.957927846851664 3.0707631887339195 6.1107769949020225 1 -1 -1
591 66 2 -0.55 8.540356186685528 -0.21571800258417406 2.6292354002767464 -1 0 1
372 42 1 1.1 4.081867512173835 3.1532133827432647 2.8632896800105407 0 -1 0
23 3 2 -0.55 4.110207775187174 1.5517931344082956 2.8137398281001973 0 0 0
369 41 2 -0.55 5.379127611081913 3.778682683226105 2.091238074773428 0 0 1
522 58 2 -0.55 5.318605587026121 1.129496336099121 5.838376337794336 0 1 0
84 10 1 1.1 8.403689440893842 3.335714500263305 5.403600156493677 1 -2 0
571 64 2 -0.55 4.122671673982432 -0.7965445516446145 1.6972163246405119 1 -1 1
672 75 2 -0.55 6.423451413407489 -0.5673500923749188 3.970169182544139 1 -1 1
235 27 1 1.1 5.33724173472864 -0.26016999333535495 5.105327815077728 1 0 0
630 70 2 -0.55 8.842183733971709 1.8221254227340786 5.15514790083855 0 0 0
373 42 2 -0.55 8.986191625522322 -0.265171933686811 6.575406643395516 -1 0 1
354 40 1 1.1 7.859135532399354 0.7368166946212433 1.4256211746415426 1 1 0
119 14 1 1.1 6.691293377031542 3.4447926959461483 1.1929836567116279 2 -1 0
143 16 2 -0.55 2.7984123817839865 3.7011614097763426 2.058642856152456 -1 1 -1
114 13 2 -0.55 4.054217031248228 3.7083239410883335 4.346775088802244 0 0 0
552 62 1 1.1 6.113186702572262 1.9798264756768331 6.925914935884167 0 0 0
709 79 2 -0.55 8.175426092879317 4.120362891075865 4.001536003402885 1 0 -1
309 35 1 1.1 7.579170569465904 -1.4824518665598039 3.3230658218493847 1 0 0
323 36 2 -0.55 6.42012423641437 0.1750611913696103 0.9712337834746628 0 0 0
360 40 2 -0.55 5.599980683914044 -1.497165002994825 6.135429499986115 0 0 0
259 29 2 -0.55 9.415530247891294 4.097538238578687 6.421420720819782 -1 0 0
201 23 1 1.1 9.843927045738148 0.7484114393127967 5.72871075180565 0 0 1
81 9 2 -0.55 10.390653319073294 -0.06275166645529295 4.485901222154898 1 2 0
253 29 1 1.1 10.91924451832126 3.04812949356723 1.9624834061697811 0 1 0
491 55 2 -0.55 10.26411865617892 1.7536325399544785 2.740001017543921 1 1 1
554 62 2 -0.55 12.288064555985493 3.238537505944233 4.949949923945805 1 0 0
596 67 1 1.1 13.123020055225489 3.744977301894118 3.6870024401057977 -2 1 1
405 45 2 -0.55 12.429031422827832 3.2223005428162272 2.3281009806870667 0 0 1
2 1 1 1.1 10.099392533956088 0.1577447631808231 2.9514431247521005 -1 -1 0
569 64 1 1.1 12.489042142684347 2.159541270146104 6.123117409806077 0 0 0
266 30 2 -0.55 11.219059590387003 -0.5881163167155257 2.1136925119561223 1 -1 0
345 39 1 1.1 12.802516856372664 -0.7516690446413555 1.8862055547014347 0 1 0
300 34 1 1.1 14.037103470242752 -0.4340307179318288 4.817822851117022 0 0 1
332 37 2 -0.55 13.654637595204141 -0.782578395422758 3.219675894269027 0 0 0
458 51 2 -0.55 13.302925117272478 0.887225372806721 5.361987481915287 -1 1 2
410 46 2 -0.55 15.640290312438585 -0.11524281773970091 4.950424550183523 -1 1 -1
277 31 2 -0.55 11.067355803802434 1.4607355832844124 6.473068921818503 0 1 -1
60 7 2 -0.55 14.575796128876796 3.1314282098446 3.880233907328084 -1 -1 0
37 5 1 1.1 16.10831410102842 3.5204222705241106 4.214336575166918 1 0 -1
718 80 2 -0.55 13.187300368106508 0.5509836222991207 1.0230253173801753 -1 -1 -1
475 53 2 -0.55 16.073525757464907 0.8798900951097881 2.5970315589541118 0 1 1
103 12 2 -0.55 10.058558623894822 4.3235458852107405 2.3522883798501986 -1 0 -1
168 19 2 -0.55 15.918072756620813 -0.9748232257812818 19.66028506536683 0 0 -1
677 76 1 1.1 16.554251478789343 0.47481843216293296 1.1173514693941233 -1 1 1
506 57 1 1.1 16.703103376566872 0.6707609259272473 4.06155769271212 -1 1 1
94 11 2 -0.55 22.887376096490573 0.19303446601070728 2.8803697043236123 -2 1 0
315 35 2 -0.55 18.097751574735238 -0.14794898025554937 4.075598360069128 0 1 0
22 3 2 -0.55 19.886592474537263 1.6041799376513888 4.432232023191223 0 0 0
416 47 1 1.1 19.615478024118396 0.016524446964051753 4.490984946598575 0 0 0
703 79 1 1.1 19.954950183415576 3.0094121659129627 3.5951535081076944 -1 -1 0
346 39 2 -0.55 21.4994853427617 2.946387662861385 3.0802650461139858 -1 0 1
42 5 2 -0.55 16.908560065993292 2.200910647440493 4.60496963169785 1 0 0
436 49 2 -0.55 20.57020181943069 -0.8465414023647764 3.4324311102870517 0 2 1
469 53 1 1.1 21.642484868582663 -0.5900766108670075 2.2757931816525634 -1 1 0
484 54 2 -0.55 19.010543038560385 3.136426073663068 2.28975551709755 1 0 0
378 42 2 -0.55 19.985131818329563 -0.506088374688149 5.996613912655374 -1 -1 0
590 66 2 -0.55 20.82899320431577 0.36429675153687757 1.1923924702883117 -1 1 0
48 6 1 1.1 22.25798324688257 3.819791348741264 1.9740838104395662 -2 0 0
189 21 2 -0.55 18.199731268125525 0.3576727679041034 1.1234592019749838 0 0 0
363 41 1 1.1 21.250119285817004 -0.38515646323563035 6.973289955056115 -1 -1 0
367 41 2 -0.55 22.515687071699784 -1.3518835527533388 6.731652357317762 -2 0 -1
557 62 2 -0.55 16.69403846184605 4.230580529583062 2.8159686844445635 -2 1 2
383 43 2 -0.55 21.658035154554778 1.2602531317446628 7.062620609968323 -1 -1 0
356 40 2 -0.55 17.211277891676655 -1.548425158376471 7.028570333526403 0 1 0
654 73 2 -0.55 7.726795568105454 4.634416326511156 1.4936442365880986 1 0 1
632 71 1 1.1 8.667328709828908 4.955450815994541 2.72575143280867 0 0 0
523 59 1 1.1 6.649104758925578 6.712668653653136 5.7899665566369976 0 0 1
171 19 2 -0.55 5.6758001037380374 5.51494890793114 5.469408589372984 0 0 -1
648 72 2 -0.55 6.958672877634538 8.40050215523473 2.028866197960265 1 1 1
10 2 1 1.1 7.867786392392225 7.976017506624496 3.309418427989582 0 0 2
130 15 2 -0.55 6.8529433054722215 7.687821320717044 4.48224696030476 0 1 0
290 33 1 1.1 3.7858594983924956 9.78788406509835 5.5827666267916936 -1 -1 1
15 2 2 -0.55 3.567963266796072 8.847785088993238 4.276570822994065 0 -1 -1
178 20 2 -0.55 9.01124032792643 9.089303792505072 3.5758069085336865 1 0 -2
440 49 2 -0.55 3.431446931957389 4.74455147225912 6.597728703478998 0 -1 0
362 41 1 1.1 4.162999354313699 5.054516488139349 5.229036160539707 0 0 0
395 44 2 -0.55 3.3650030727231335 6.2449743070799215 4.339805390014746 1 0 -1
715 80 2 -0.55 8.137073591378616 6.256348598071847 6.263224551584812 1 0 2
503 56 2 -0.55 3.694119601989941 8.869971888727845 6.882080447765155 -1 -1 0
17 2 2 -0.55 8.584175733945596 6.552250546343206 2.9812239458760823 0 1 0
291 33 1 1.1 2.555594101772774 7.618004948883195 4.130384122382553 0 0 -1
601 67 2 -0.55 4.742805087978601 6.74833544770215 1.1869894084387345 -1 1 1
54 6 2 -0.55 3.0838606017282433 10.084997751770937 1.5290377861851163 0 0 0
619 69 2 -0.55 6.0068924783164 7.6891568824968335 6.901215937244133 0 0 -1
502 56 2 -0.55 11.872146446156352 6.792064650477458 5.225074009013708 0 2 -1
666 74 2 -0.55 13.321985210916278 5.3833262511730124 3.668091287253377 1 0 0
558 62 2 -0.55 13.606693235032463 7.908171796253296 3.5047049224494295 0 0 -1
542 61 1 1.1 12.429925933043679 6.746069905236533 3.740065746250137 -1 0 2
493 55 2 -0.55 14.123362770004093 9.348100102273715 5.544097009001212 0 1 0
678 76 1 1.1 14.812348337918854 8.310291217300156 4.46468463303766 0 -1 1
439 49 2 -0.55 11.29408504036648 6.717354637318179 2.5750061935294544 1 -1 0
720 80 2 -0.55 16.026864712016888 8.906809396187318 3.622232147737238 0 1 1
699 78 2 -0.55 15.306576796278557 6.967052176981447 5.28349178157213 -1 1 -1
551 62 1 1.1 12.039769015113166 6.786709282908225 6.909736721381039 0 0 1
56 7 1 1.1 13.047059201912237 9.561715669571994 6.7130512543356495 -1 0 0
525 59 1 1.1 11.009560276000629 6.873192371611038 0.9538992818494948 -1 2 0
430 48 2 -0.55 16.149683614788316 4.534272930640276 5.427363373863131 0 -1 1
512 57 2 -0.55 15.623607264897718 8.258860837727669 1.0840390220271956 0 0 2
671 75 2 -0.55 11.100875972418924 8.515737130776207 0.8899744100832874 0 0 1
621 69 2 -0.55 19.54448352005216 4.417743687044133 4.334459882202344 1 -1 2
335 38 1 1.1 17.98849090189163 4.271927431169788 1.8299984159714697 -1 0 0
498 56 1 1.1 16.63476363971015 8.942263817387408 2.164983996374964 -2 0 0
659 74 1 1.1 16.566228580919756 6.063633616198736 5.599892567176721 0 1 0
348 39 2 -0.55 22.88222156315612 7.688462095336442 2.635133487064512 0 2 0
712 80 1 1.1 22.0471469734026 6.7997889726003145 1.5698580251684433 0 0 1
353 40 1 1.1 20.804947331074516 7.537757175595996 5.42660761649143 -1 1 0
69 8 2 -0.55 18.1739528631218 8.36531403210772 2.14244614001988 -1 -1 -1
689 77 2 -0.55 20.1658860322968 8.861735939878034 6.013185601000471 -1 -1 1
312 35 2 -0.55 18.820821778512105 5.7712717574836905 2.2016916790794188 1 0 2
95 11 2 -0.55 20.179913459565885 6.998060354846421 4.1033766791499495 0 0 1
438 49 2 -0.55 22.402498419965507 7.7343707505577655 5.198848830393104 -1 -1 0
336 38 1 1.1 19.078381286245452 5.890714514707383 3.8263031235471856 -1 -1 -1
59 7 2 -0.55 20.399084215834197 6.298435213750009 6.521804538923137 0 0 1
24 3 2 -0.55 17.727708762453187 6.352030514459047 4.54903165428782 0 -2 0
526 59 2 -0.55 21.776568977791097 5.37645372791915 2.1464352937689317 0 1 1
262 30 1 1.1 19.024494362258398 7.264839678536276 1.4145039963026482 1 0 0
673 75 2 -0.55 20.62316680669223 7.45118913280602 1.122032693560768 1 1 0
448 50 2 -0.55 17.208504621707487 6.413214678972141 7.046430889110469 0 -1 0
41 5 2 -0.55 21.795674466479873 10.092668366090264 3.162389680102811 0 1 -1
494 55 2 -0.55 5.25355759384246 10.441308471611775 5.628110771379787 1 0 1
662 74 2 -0.55 3.5180075200764893 12.9458603137638 3.7917073734294924 -1 0 2
567 63 2 -0.55 5.935823974387205 13.50268008507151 2.8559421317347535 0 -1 0
237 27 1 1.1 6.08997960724512 11.297664880698738 6.63142095520157 0 0 1
79 9 2 -0.55 3.5882046762281226 13.431186053784316 6.262661267681906 0 0 -2
210 24 1 1.1 4.5016551916890855 14.136626066792552 3.1120610052721793 1 -1 0
324 36 2 -0.55 3.6523168675699957 14.651332184642486 1.8398298440060743 1 1 1
282 32 1 1.1 2.747870059486245 12.623727614709864 5.163947234942026 -1 0 -1
117 13 2 -0.55 6.376270930630218 12.762132327057689 5.951802668647362 -1 -1 1
483 54 2 -0.55 4.855364608153112 15.487177964552904 3.939024884809407 1 -1 1
187 21 2 -0.55 7.867043861376814 11.48187461049599 3.3035608987277914 0 -1 1
541 61 1 1.1 8.795143704868398 15.414240514232306 5.058507069160519 1 -1 0
705 79 1 1.1 6.865368592184187 14.045332126932303 6.845236066059486 0 0 -1
320 36 2 -0.55 7.487434354914418 15.21664158561372 5.992685809645157 -1 -1 0
432 48 2 -0.55 7.680157996149029 15.613631414410497 1.3144239576543544 0 1 0
714 80 1 1.1 6.612241881165921 12.080747620641713 2.4702656297344223 0 0 0
243 27 2 -0.55 2.8053719032013222 11.048740462116339 5.494740410649131 0 0 1
152 17 2 -0.55 5.414227048156659 10.995429547582564 2.3047692218048734 0 0 0
127 15 1 1.1 9.00565903678326 16.063514937499008 2.08431036072383 0 -1 0
710 79 2 -0.55 8.566215478605217 16.28885790008917 3.6677497030593518 0 0 1
597 67 1 1.1 9.229836436749318 10.64808508006006 3.16470760019484 0 0 1
306 34 2 -0.55 11.724354087634001 10.220823475831045 6.20622421756889 1 -1 0
719 80 2 -0.55 9.338793617647438 13.992571071784749 4.5795126809905735 1 0 1
167 19 2 -0.55 10.464045048353396 11.261945259718809 4.05359528938816 1 0 0
646 72 2 -0.55 12.296991770801013 13.501725308026824 1.796633569176295 0 -1 0
381 43 1 1.1 11.603721067443594 14.874500005841808 1.3137334937450396 0 0 1
182 21 1 1.1 11.156312894925685 11.602202863116817 5.500523839633801 -1 0 0
141 16 2 -0.55 12.523032729246276 12.490822115852762 5.4417960700756325 -1 1 1
609 68 2 -0.55 10.215187580897755 15.056183113146114 1.9783318221045656 0 1 1
441 49 2 -0.55 12.518452374981702 10.794809543674878 1.4988435957219188 0 -1 0
661 74 2 -0.55 14.640489288463321 12.696942811383078 1.5041371688296834 0 0 1
21 3 1 1.1 14.674272701739875 16.025305476943878 4.950693928101465 0 -1 1
434 49 1 1.1 13.46739387336656 13.525261288603298 6.202366666867516 0 -1 1
160 18 2 -0.55 14.407978539165024 14.459126804159064 5.246716661242271 -1 0 -2
530 59 2 -0.55 9.965662151822956 12.124363029290517 6.479208966491731 -1 -1 1
637 71 2 -0.55 9.865321776216454 10.615155917507654 1.6122654511733026 1 -1 0
26 3 2 -0.55 16.029086147797713 16.023915321421228 4.145319479233695 0 1 1
610 68 2 -0.55 12.478134644522273 16.202955292071444 1.678602689188398 0 0 1
120 14 1 1.1 13.09413818183599 12.246151924847064 1.1314176008657932 0 -1 0
600 67 2 -0.55 9.88245559585602 16.31443742979343 5.878363614958869 -2 0 0
544 61 2 -0.55 12.6416063933652 14.647938131494017 6.964043614900001 -1 0 1
49 6 2 -0.55 14.534218022266023 12.715442828446307 7.087204487823516 -1 1 -1
102 12 1 1.1 2.3830047484255825 15.508681940890972 1.4256332003185492 0 -1 0
106 12 2 -0.55 16.686430290309914 10.486685150617257 1.69229666068369 -1 0 1
398 45 1 1.1 22.791770501985294 10.701543493686499 2.1948260982944174 0 -1 0
162 18 2 -0.55 21.17477394192803 15.349995609286223 4.3248284549731 0 -1 -1
249 28 2 -0.55 18.348506844009115 15.858135372832981 3.06781890379235 1 0 -1
191 22 1 1.1 17.38914866659217 15.119673302647401 4.107245249284095 0 -1 2
457 51 2 -0.55 17.33285146582559 13.552152495571432 3.573564981232145 -2 0 0
287 32 2 -0.55 18.265039284160768 11.54887398809705 4.963961862030871 0 0 0
125 14 2 -0.55 19.91458382773585 13.223074687620821 3.7557807631139304 -1 -1 -2
257 29 2 -0.55 20.113734797105693 13.777133780698584 6.235882381607597 -1 1 1
496 56 1 1.1 18.505833728257613 12.403010021720846 3.561235401705578 -1 -1 0
89 10 2 -0.55 18.77013887922974 11.67326330832238 2.1219853806422972 0 1 1
110 13 1 1.1 20.94824141827598 13.870784188569628 4.804781123792097 0 0 -1
581 65 2 -0.55 22.28117325587067 13.162323901046788 5.041712827142033 1 -1 1
533 60 1 1.1 18.741726820350042 14.333120722976325 6.76681341649543 0 0 2
322 36 2 -0.55 17.950166904962416 15.091546410620586 5.633333747844962 -1 0 0
101 12 1 1.1 17.997096168865944 11.582484675377886 6.5703070637260925 0 0 -1
32 4 2 -0.55 22.297358189102574 12.001930196954415 1.5119864675590238 -1 0 1
280 32 1 1.1 17.760656379353435 11.422613424559028 0.9449960484979301 0 0 0
260 29 2 -0.55 21.605555320228042 16.087973459535448 6.956239943078488 -1 0 -1
252 28 2 -0.55 22.188351988266767 14.532434242145511 0.8742967882211389 1 -1 0
58 7 2 -0.55 16.501857913446035 10.906742787285665 6.849219783266802 0 -1 2
593 66 2 -0.55 17.870565654609056 13.062992741133657 7.194632640949086 -1 -1 2
477 53 2 -0.55 5.597987804374343 17.067384297075932 2.0716247209528555 0 0 1
514 58 1 1.1 5.13228105126064 17.098364285534885 3.654601843508353 0 0 0
265 30 2 -0.55 8.319164186777513 21.488982218478448 4.4626560085452365 1 0 0
351 39 2 -0.55 3.975804488813055 19.87570789169849 1.9574308831480551 1 0 1
51 6 2 -0.55 4.813052370110703 20.54909325884227 4.274417578008477 0 -2 -1
292 33 2 -0.55 3.9271216538534737 18.121585315456173 3.8823903796943866 1 1 0
426 48 1 1.1 4.988131010059094 20.888323013094798 5.809303720277865 0 -1 0
545 61 2 -0.55 7.291056292566253 21.47494775556622 2.017142139959752 0 -1 1
115 13 2 -0.55 6.171404704195435 17.78010815233234 4.641519143707175 1 -1 -1
188 21 2 -0.55 8.193295447203809 18.967780702341244 5.629828781722481 -1 -1 1
622 70 1 1.1 6.638137812631083 18.433762071415792 5.966230824449212 1 -2 1
487 55 1 1.1 3.695894154255683 19.68333670649654 3.5308628767397634 2 -1 0
690 77 2 -0.55 3.5238369491533375 20.81985831957396 6.401464976751079 0 -2 0
386 43 2 -0.55 6.021246227891632 19.854086534909044 6.3996392751621345 -1 -1 1
272 31 1 1.1 9.029182834182812 20.03631227615832 4.679212604975852 -1 -1 0
566 63 2 -0.55 9.129628749960414 19.42280704838072 3.1750616033242407 0 0 0
608 68 2 -0.55 23.23700956553013 20.02418366356308 3.9570679267204496 0 -1 1
549 61 2 -0.55 13.768759487584703 22.207321516425537 5.8028667048870375 -1 -1 -1
293 33 2 -0.55 9.511873149749924 17.491149195115952 1.5610578645033861 1 -1 1
150 17 2 -0.55 13.368484094185298 16.641044162161194 4.176650526875781 -1 -1 0
660 74 1 1.1 12.806528513802112 17.320858130182046 2.8004897076074826 0 -1 1
451 51 1 1.1 15.002682720421616 19.53531713272406 2.895047437287853 -1 0 0
219 25 1 1.1 10.238050375804686 18.75762907109855 2.1896538589192556 1 -1 -2
665 74 2 -0.55 11.487637233850542 18.2334868776357 3.023679180007 -1 0 0
325 37 1 1.1 14.12554061799417 20.64835489090484 5.647604202458179 1 0 1
337 38 2 -0.55 12.94262417449822 19.7843169001734 6.29875781077788 0 0 1
431 48 2 -0.55 14.240222795888124 20.236804779602494 4.117541317207346 -1 -3 0
675 75 2 -0.55 14.070310844480783 18.307009082273176 2.414792887786235 0 -1 1
122 14 2 -0.55 14.857296814250647 16.844561797956445 6.381111555756333 0 2 -1
481 54 2 -0.55 15.192150604612948 20.593590636488237 1.7360374229218367 -1 1 1
516 58 1 1.1 11.354854107604714 19.776133763827886 6.588843389795575 1 1 0
486 54 2 -0.55 15.547889910223313 20.427868748954104 6.425532488900435 0 1 1
411 46 2 -0.55 10.50795721253031 20.11289666512055 5.278311209771278 0 -2 0
359 40 2 -0.55 10.768197590884466 19.922494290048242 1.1951973250379346 0 1 -1
121 14 2 -0.55 12.80306286580244 21.89082186815677 0.8912012854007466 0 -1 1
706 79 2 -0.55 16.416544261957718 18.987677085091875 3.4602986885487867 0 0 1
108 12 2 -0.55 2.3814731487598126 16.218010840256234 5.26766130010037 0 1 -1
711 79 2 -0.55 22.890728902680344 16.36245254189862 2.710554939875123 0 0 1
513 57 2 -0.55 22.21530036034852 22.109859395890787 1.445292081127035 0 0 0
334 38 1 1.1 22.25882568896629 16.491764764942182 4.142253933302916 0 -1 1
461 52 1 1.1 23.163946624941754 16.388700888633856 6.803512826893661 -1 1 0
11 2 1 1.1 18.556140581037848 16.51891114082403 1.6194781008694576 0 -1 1
663 74 2 -0.55 21.593659711751126 17.939626359975378 4.3775657775142855 1 0 3
573 64 2 -0.55 18.567336397428363 18.477446583304804 4.99489133223684 0 0 2
623 70 1 1.1 17.8565453345591 19.47476442855133 3.942385876452835 0 -1 1
499 56 2 -0.55 18.714580777505795 19.753714388635302 2.6144506428929892 -1 0 1
159 18 2 -0.55 17.48920422257114 20.834414898550328 4.777458432581468 1 0 -1
73 9 1 1.1 17.097309915810065 20.9508374754641 6.348965950313047 0 0 0
9 1 2 -0.55 20.966791475674697 20.396636704405076 5.122116810160906 0 0 0
633 71 1 1.1 21.716632119429086 19.568555877851743 3.963018734916291 -1 0 1
485 54 2 -0.55 21.17298488366503 19.69015353134599 2.498824346778642 0 0 1
589 66 2 -0.55 19.77944634385797 17.58915380232081 1.6988750012754994 -1 -1 1
156 18 1 1.1 19.852407680821152 19.13913504779353 1.68367690203937 0 0 1
74 9 1 1.1 18.5425471125079 18.39948432636605 6.602675733840644 0 -1 -1
123 14 2 -0.55 17.074932724892 17.174182795332364 1.3398127641671826 -1 0 0
338 38 2 -0.55 17.998287424443916 19.810382189350854 7.035160185270012 -2 0 0
674 75 2 -0.55 17.27286571392607 17.43808618723199 6.997755748041774 0 0 0
27 3 2 -0.55 5.32915716717684 2.6578142193812235 8.134445861255623 0 0 -1
166 19 2 -0.55 7.036119830494065 0.8931186345084283 7.6929580035456455 1 1 -1
225 25 2 -0.55 5.34477437205758 -0.27592939658943694 9.752779870231624 1 -1 -1
586 66 1 1.1 8.356598020009512 0.07386137205330368 7.970501992804089 0 0 0
198 22 2 -0.55 4.561839242265261 0.44952576825573765 12.056643056250447 -1 -1 -2
326 37 1 1.1 5.8628015939410325 0.45375277106022693 11.092912068887463 0 2 0
8 1 2 -0.55 6.212246424870453 1.901320313636961 10.652816442489335 0 0 0
453 51 1 1.1 5.1878219825970024 2.797891021364233 9.724925328847425 0 0 1
423 47 2 -0.55 7.08009415689653 -0.44313869124374095 11.76038896857187 0 0 -1
508 57 2 -0.55 7.988118391742653 -1.1970573850057167 8.923477382410482 0 1 0
192 22 1 1.1 3.305730261737138 -0.6042808106547868 12.059748145516156 0 0 0
153 17 2 -0.55 3.670023275811851 2.233862085665829 9.916107538501626 0 0 0
639 71 2 -0.55 7.855093803307366 3.32785779509263 12.754836184849895 -1 0 1
470 53 1 1.1 7.901433375820687 -1.5317435404402997 12.55809533494081 0 2 0
652 73 2 -0.55 9.395576969282967 1.0872301458744764 8.656096548081385 -1 0 0
539 60 2 -0.55 3.3686933514703172 -1.4562368015816847 8.466113979204113 0 2 -1
425 48 1 1.1 2.3871628649415277 3.145397902835411 10.034751398969124 0 -1 1
628 70 2 -0.55 9.464140128206731 -1.4231197435259608 12.350351622544734 0 2 -1
584 65 2 -0.55 13.237535534707053 2.6541164025923596 7.441022321780546 0 0 1
25 3 2 -0.55 11.75814229036933 2.2310412251426186 9.551742681896252 0 1 0
90 10 2 -0.55 10.406180263189789 0.40154791460768324 10.810412407643351 0 1 -1
379 43 1 1.1 10.825707473296571 0.954305607738767 9.35358363285128 0 1 0
462 52 1 1.1 12.756489152904107 3.3125382565037595 12.312070227063186 0 1 0
67 8 2 -0.55 14.273967135571759 1.981839043817017 9.827626947954224 1 0 2
488 55 1 1.1 13.152493393994067 2.7931863386127684 9.05034406200475 1 -1 -1
104 12 2 -0.55 15.584080338074132 -0.8154239675318257 9.069715103056952 -1 0 -1
181 21 1 1.1 15.764502073646009 2.294376969696246 10.487260281002932 0 1 -1
215 24 2 -0.55 11.588745671519675 -0.25076878528957036 8.574761303881704 0 1 -1
111 13 1 1.1 10.574956905469396 -1.0992968101624974 11.31104473661379 -1 1 -1
72 8 2 -0.55 15.848267411805 3.8077536720295297 11.04554687120791 0 2 0
303 34 2 -0.55 12.498481830366423 1.8833244248947811 12.83989955689263 -1 1 0
580 65 2 -0.55 15.883262350148552 1.3546664965075372 11.782358477761166 0 0 0
476 53 2 -0.55 14.07155108063548 3.9891181924446713 12.861336099413718 0 0 1
269 30 2 -0.55 12.073623353373742 -1.1866295338208044 11.907157592656333 1 -1 -1
572 64 2 -0.55 13.24307075508076 4.308180978615471 9.477656807991648 0 1 1
313 35 2 -0.55 23.151952159174947 3.5438691467179995 11.6200314969857 -1 0 0
208 24 1 1.1 16.734898546803272 1.7158073264467486 13.086798494831024 1 -1 0
186 21 2 -0.55 16.993934958779754 2.1188401834110686 9.486642400764815 -1 0 -1
540 60 2 -0.55 20.837937680911892 -0.5721653946014471 8.49871152369363 0 2 0
330 37 2 -0.55 18.280122768524404 -0.5874254872592766 9.308836482283358 -1 1 0
500 56 2 -0.55 22.079627948418032 2.53853339183388 9.390618655906476 -1 0 1
599 67 2 -0.55 19.57453536396076 2.1400772240601764 8.41435027973934 0 1 -1
536 60 2 -0.55 20.81396395591344 1.551173595555552 11.870550470518495 -1 0 -1
137 16 1 1.1 21.11212113849102 2.4501038647974154 8.055682740381727 0 2 1
268 30 2 -0.55 20.350439082503573 -0.8123145898610373 10.930610530666357 -1 2 -1
298 34 1 1.1 21.325176717947727 0.0197004239171501 11.852935586469659 0 0 0
264 30 1 1.1 19.508010635890383 2.424102334794269 12.173239968213581 0 -1 -1
420 47 2 -0.55 18.940239035786668 3.0914094314268104 10.822083327894239 -1 1 1
1 1 1 1.1 18.460779067410094 2.892659538620835 9.270795945753605 0 -1 -1
211 24 2 -0.55 22.900623365848666 -0.09401770332274473 11.518203873677896 0 0 -1
669 75 1 1.1 17.040973233404912 -0.781947846147473 8.429891880215184 -1 1 0
717 80 2 -0.55 18.27503715547857 1.5262537061399164 12.75314791146372 0 1 -1
173 20 1 1.1 19.705928762345497 -1.2260471317403434 9.498303275204123 1 0 -1
629 70 2 -0.55 21.120179142472793 3.9742014373439156 7.441706519756344 -1 0 1
521 58 2 -0.55 21.06749972572825 -0.48871163836250253 13.369852637190782 -1 2 0
331 37 2 -0.55 17.98923247902453 4.184907719256415 8.477513203952201 0 0 0
44 5 2 -0.55 19.980092984893297 3.545720036799338 13.211214136676242 0 0 -1
467 52 2 -0.55 5.390357829781308 4.266310549125236 10.212935815296241 0 0 0
421 47 2 -0.55 2.6712653146698937 4.509175480266315 9.231389999086016 -1 0 1
66 8 1 1.1 4.677885938520458 7.99485146717697 7.751208207562507 0 0 -1
229 26 2 -0.55 4.082151666956754 6.589418251207114 8.291259218364534 0 -1 -1
88 10 2 -0.55 7.851948324933924 5.489811803368836 11.329889088567864 1 1 -1
478 54 1 1.1 8.072126246717229 4.878208749698752 12.768101091306328 1 0 0
524 59 1 1.1 3.2051597277373243 7.499198932844788 11.42030555589681 1 0 0
388 44 1 1.1 5.922207018053221 8.252826931468936 10.22290632854717 1 -1 -1
376 42 2 -0.55 4.800328406318496 7.478751509167315 11.141535973773532 1 1 -1
163 19 1 1.1 8.185720689943391 6.25130975696549 9.937712137623784 1 0 1
233 26 2 -0.55 6.928798907952519 7.149564048033696 9.588328556583349 -1 -1 0
19 3 1 1.1 7.414462412095085 9.216631923117333 12.582383009270167 0 0 0
157 18 2 -0.55 6.7653585937822704 9.227439144410509 11.115761225255962 1 2 -1
4 1 2 -0.55 5.203193230483249 8.865988845938666 8.987154752389761 -1 0 0
634 71 2 -0.55 8.490984022964163 5.264513752553553 8.677765602757272 0 0 0
321 36 2 -0.55 8.54750803629642 8.025833418269977 12.590990077520829 -1 0 0
468 52 2 -0.55 2.704593573004097 6.039474685426737 11.720324207311846 1 0 -1
560 63 1 1.1 2.9790291661780337 5.483402176093375 7.979382258553271 0 1 2
384 43 2 -0.55 2.9280356332459316 8.488416238791036 12.704075212437143 1 -1 -1
371 42 1 1.1 2.5592612156436942 4.715894501910543 12.628286365066701 0 -1 0
29 4 1 1.1 9.17163189068739 5.422916876165438 7.2346934191850405 1 0 -1
112 13 2 -0.55 2.3690486889185234 8.200758969721415 10.105704900319733 1 1 -1
285 32 2 -0.55 9.404614133331108 7.231032473189751 10.232323989459964 0 -1 -1
267 30 2 -0.55 12.556220930261269 8.171119038974046 7.389388324453373 1 -2 0
75 9 1 1.1 15.600677346211326 4.34627754007348 12.534216720783059 0 1 0
185 21 2 -0.55 13.214706855767956 5.8241055029524045 7.400656243295278 0 0 -1
603 67 2 -0.55 11.618797824530198 4.367415673661993 12.056531819906112 0 0 -1
184 21 2 -0.55 10.546373712891377 6.293719308601306 7.376429843106358 -1 0 0
70 8 2 -0.55 13.84473922021872 6.757840029656755 9.830092388404038 1 0 -1
640 72 1 1.1 14.052238642889883 5.590953756769317 8.82640563694931 0 0 0
424 48 1 1.1 9.925599602156035 7.991654506648164 11.589900564039523 0 0 0
286 32 2 -0.55 10.317536348672997 9.486733619110847 11.353303278361427 -1 2 -1
239 27 2 -0.55 15.583007357277006 5.200993508015655 8.637273936012422 -1 0 0
236 27 1 1.1 14.237613043048723 9.734439884477862 12.621243217397618 0 -1 0
688 77 2 -0.55 14.431063155463956 8.172114958412548 13.084165100826521 0 1 1
419 47 2 -0.55 12.668591769669787 9.984770185929799 12.213967760032933 -1 0 0
682 76 2 -0.55 11.05088477709963 7.114247764761567 12.341668235843835 0 1 0
164 19 1 1.1 11.078989573450913 5.660813947117933 12.959323529691526 0 0 -1
645 72 2 -0.55 15.956371309778518 5.8395545207615225 12.915877556454774 -1 -1 -1
248 28 2 -0.55 9.618349085464008 5.13157210388293 13.288133588322912 0 -1 0
278 31 2 -0.55 22.594622982335366 6.150629969292304 7.802161862797277 -1 0 0
93 11 1 1.1 21.071722618203452 5.597854807453718 7.810456565698453 -1 0 -1
245 28 1 1.1 17.105251257796056 5.624091012189202 8.438501540627277 0 0 0
190 22 1 1.1 20.10904522408722 9.481444829187135 7.5006845572749405 0 -1 1
366 41 2 -0.55 20.337952764100407 6.164920954446252 9.14037396295047 1 0 -1
5 1 2 -0.55 21.492362694806133 8.09485173793928 12.517448243477356 -2 -2 1
216 24 2 -0.55 19.302804702673026 7.898920497863948 11.062432914803203 0 -2 -1
231 26 2 -0.55 19.344404309724023 8.399734417692601 8.400962395030696 -1 0 -1
701 78 2 -0.55 17.777980081856256 6.51852219261035 9.54866050586713 0 0 0
12 2 1 1.1 19.204636392837106 7.25252036799767 9.576181800172824 -1 0 -2
605 68 1 1.1 19.97999510794537 7.598802634021363 12.493632683774088 -1 0 1
466 52 2 -0.55 19.971178727184196 6.051994289029692 12.673855883972848 0 1 1
352 40 1 1.1 22.673596717294327 9.468331476132494 9.409056122845643 -1 0 0
295 33 2 -0.55 21.675865946073586 9.300070909110353 8.089996820983666 -1 0 0
279 31 2 -0.55 21.628837759872795 10.037526927327137 10.451858285721253 -1 1 0
684 76 2 -0.55 7.664708244090574 10.884476891216488 7.110337843061121 0 0 1
14 2 2 -0.55 5.52833925834078 14.480306054627443 7.658278074306603 -1 0 -1
197 22 2 -0.55 2.728606749547778 10.60666820299431 8.934900621426914 0 -1 0
553 62 2 -0.55 3.020826160237112 15.50211173623745 7.748279238706088 0 -1 0
209 24 1 1.1 3.9610556506754575 14.187785770351857 7.657997971672171 0 0 1
91 11 1 1.1 4.019118052060611 11.578633783762365 9.062361848787608 0 0 1
450 50 2 -0.55 7.997489762304713 13.350834823865972 7.7564449095460635 0 0 1
224 25 2 -0.55 5.223942496858848 11.44582535350167 8.032256077139944 0 0 -1
169 19 2 -0.55 4.494497812749018 11.529795257519678 10.56963947357856 1 0 -1
695 78 1 1.1 5.769855606299556 15.463706710586676 10.62967196820611 0 0 0
473 53 2 -0.55 5.889318711616408 12.511505957222106 12.710118267832227 0 1 1
250 28 2 -0.55 8.048076098549547 13.966333745701778 12.366716205246725 0 -1 0
179 20 2 -0.55 5.336897955877177 13.945740632681373 10.667792068245857 0 -1 -1
568 64 1 1.1 4.722007455452379 12.745211315820137 11.608814709854407 1 -1 1
635 71 2 -0.55 7.355755485627397 15.480574411494286 10.461384021600992 0 0 1
129 15 1 1.1 8.65665685015546 14.848144559221508 11.183788709189997 1 1 -1
517 58 2 -0.55 3.43564077278577 13.275651175897098 12.340691769457178 0 1 0
40 5 2 -0.55 3.510319174427095 13.085432190941829 8.784415054020526 1 -1 -1
174 20 1 1.1 8.842708200836872 11.936128711274781 7.56337560638438 0 0 0
527 59 2 -0.55 8.155905908288922 10.581689576893211 13.023738444270544 0 0 -1
409 46 2 -0.55 5.509542463611743 15.991794676365847 12.169434490916368 0 0 -1
329 37 2 -0.55 15.19253328650528 10.320519802259888 11.461251694156621 0 1 0
429 48 2 -0.55 9.447749475574696 13.758649921348082 10.264974136302197 0 0 0
412 46 2 -0.55 13.927622556248458 10.42626955265202 7.778506509115929 -1 -1 -1
391 44 2 -0.55 9.580710118444419 11.541678028440511 8.947203555009127 0 -1 0
570 64 1 1.1 11.201042155858234 10.657247894584943 12.03689541241081 0 0 0
342 38 2 -0.55 11.217423600518808 11.912914300939264 11.02847792323497 0 2 0
614 69 1 1.1 10.46434075366827 12.620656415844016 9.800008938557896 0 0 2
417 47 1 1.1 11.952811932277735 14.89744787985254 8.387856527751271 0 -1 -1
582 65 2 -0.55 14.903253160146305 15.599151099712325 11.0692049838093 0 0 0
534 60 1 1.1 15.21393485586389 11.38195885841654 7.695325339325683 0 0 0
148 17 2 -0.55 11.55334520391547 13.432866543027549 8.900657777354855 1 1 0