LAMMPS data file via write_data, version 29 Aug 2024, timestep = 1465, units = metal

718 atoms
2 atom types

-16.717 16.717 xlo xhi
-9 9 ylo yhi
-9 9 zlo zhi

Atom Type Labels

1 Si
2 O

Masses

1 28.0855
2 15.9994

Atoms # full

105 0 1 0 -11.740734525703692 -7.595623514540712 8.970836454258567 0 0 -1
373 0 2 0 -11.668530520046632 8.832900563856343 -8.604596193647303 0 -1 0
664 0 2 0 -9.30144962558467 -5.045906716504368 -6.907039736615547 0 0 0
716 0 2 0 -15.10466114116414 8.315086304421603 -6.481767693328384 0 -1 0
390 0 2 0 -11.388064902632555 -7.870483807341372 7.500531497933139 0 0 -1
402 0 2 0 -10.630010693242365 -6.730135625886378 -7.890153169608671 0 0 0
38 0 1 0 -15.506138058730672 -4.185437128086135 -6.160733690362285 1 0 0
125 0 1 0 -10.133940764550035 -5.105350130025116 -8.25429260609332 1 0 0
349 0 2 0 -12.862962232658406 -6.027418464754878 -6.113395438208659 1 0 0
465 0 2 0 -15.256252783957514 -5.1335722086229625 -7.996481944159233 0 0 1
654 0 2 0 -9.502164131371607 -3.188032157190976 -3.145141570971183 0 0 0
37 0 1 0 -9.399544513225058 -3.585759995530063 -6.12837252896755 0 0 0
126 0 1 0 -3.64808855793704 -2.909784926878264 -8.535285130610758 0 0 0
354 0 2 0 -9.175885940248072 -8.776098600628474 -3.0140116487264135 0 0 0
145 0 1 0 -8.284787011208188 -2.2822267476522895 -2.691602610116291 0 0 0
261 0 2 0 -6.387795055940997 -1.429879838912841 -5.705119255940858 0 0 0
519 0 2 0 -5.810845212308948 -4.974686804568765 -2.8545731254366493 0 0 0
52 0 1 0 -7.258436833389675 -1.6795229911772995 -7.130332996569444 0 0 0
496 0 2 0 -7.996205837561823 -2.9158945813794954 -6.132389704819668 0 0 0
650 0 2 0 -6.578488922915435 -2.392430136168241 -8.222835741453826 0 0 0
441 0 2 0 -13.88158877555814 -8.328105650223158 7.54950421674791 0 0 0
198 0 1 0 -5.458883990752612 -5.36140927887594 -4.3970829526590025 0 0 0
31 0 1 0 -4.495791973128903 -5.292523431602872 -6.861332015747044 0 0 0
84 0 1 0 -2.4013077525092816 -6.326128047017243 -3.566407276271745 0 0 0
161 0 1 0 -0.6083556417692504 -6.3943712420475896 -6.019462502554704 0 0 0
461 0 2 0 -5.048913821414348 -4.568915589647649 -5.629589299674532 0 0 0
508 0 2 0 -3.8953298323727057 -6.831466912137362 -7.066834002787755 0 0 0
265 0 2 0 -0.13675328132427392 -1.1648663397218955 -1.7641607522401195 0 0 0
568 0 2 0 -3.91543072579219 -4.548664613979754 -8.236102430882214 0 0 0
446 0 2 0 -0.012420447442181246 -5.222251854708209 -7.175312021592876 0 0 0
684 0 2 0 -2.2881768205200044 -5.999962385752925 -5.578129131483759 0 0 0
471 0 2 0 -1.5578415328121478 -7.686652894912743 -3.087367021163193 0 1 0
648 0 2 0 -4.054238195001669 -2.6093501540273873 -2.746527130984555 0 1 0
630 0 2 0 -6.8545261196115055 -6.270728742918511 -4.967440965327655 0 0 0
290 0 2 0 -2.2416973136138774 -1.8738822947754936 -4.283633435256032 0 0 0
136 0 1 0 8.978131728290432 -4.678916972002455 -7.974936373008274 0 0 0
223 0 1 0 3.3846745572324552 7.00959670309619 -4.442365830002826 0 -1 0
567 0 2 0 0.5140269451136692 -6.050265669772373 -4.914652462464964 0 0 0
622 0 2 0 7.261670229678142 -4.994179247051757 -7.096869945593022 0 0 0
649 0 2 0 2.6278726633040512 -7.2547381722429485 -5.806496889436222 0 1 0
257 0 2 0 3.3726656976502434 7.882274659546806 -5.766622000139204 0 0 0
586 0 2 0 0.15400079050205687 -2.625746811051819 -6.228520505203669 0 0 0
691 0 2 0 1.2614407714227236 -8.735130257030152 -4.087345696914673 0 1 0
179 0 1 0 1.893879139583421 -6.863499758502662 -4.463704957548202 0 0 0
159 0 1 0 -0.8554124806866609 -1.7991747975405026 -3.2841444378146822 0 0 1
146 0 1 0 6.067124177871434 -5.616786172390225 -6.216471664704958 0 0 1
267 0 2 0 4.700259680668787 6.43366552689329 -3.7414178908060025 0 0 1
115 0 1 0 7.388377728393995 -5.276401526943472 -4.097434637198187 0 0 0
221 0 1 0 10.39612892068132 -6.686075435431888 -5.421014172516135 0 0 0
372 0 2 0 6.197191456330703 -6.095630895370549 -4.7197019880585875 0 0 0
421 0 2 0 9.06660304401831 -5.699242139441827 -4.8659263808268 0 0 0
135 0 1 0 11.448284870396911 -4.208320299371006 -6.664555456061356 0 0 0
477 0 2 0 7.262339283270438 8.142049102272948 -6.6965915795280875 0 -1 0
505 0 2 0 10.358692043759651 -3.501586325541364 -5.901100675328223 0 0 0
409 0 2 0 7.540196845805641 -3.8192021648643997 -4.760519678865984 0 0 0
309 0 2 0 11.492110438156868 -5.6597716061321846 -6.1074726028829645 0 0 0
191 0 1 0 9.267672072720385 7.651770759645908 -6.857008725866281 0 -1 1
468 0 2 0 12.415321955186544 6.935085683829996 -7.529960471521795 0 -1 1
682 0 2 0 13.918688277101634 -5.457551869350117 -3.5337493045392048 0 0 1
536 0 2 0 10.15356699423596 -7.841417962573494 -4.495806924752331 0 1 1
571 0 2 0 12.159896403923625 -7.3009793776260565 -2.135093671727059 0 0 0
616 0 2 0 14.52057870007995 -7.728643164892475 -7.112964342555527 0 0 0
617 0 2 0 16.050872176167125 -3.4533251256784974 -5.86850172200421 0 0 0
329 0 2 0 16.596921834797467 -6.258168719164762 8.617275263282748 0 0 -1
253 0 2 0 -15.71845875705373 -6.872569195728175 -2.959844114936778 1 0 0
137 0 1 0 -15.4164300710496 -8.840307711884485 -5.216774424158892 1 1 0
488 0 2 0 14.665312721729348 -5.159366311053515 -6.994597094220155 0 0 0
30 0 1 0 15.760454252430613 -6.71388500831355 -7.241077741404273 0 1 0
384 0 2 0 -16.294797930329757 -7.567081127662636 -5.990138044827236 1 1 0
718 0 2 0 11.23194624710514 -4.0285670275454795 -8.32924096059788 0 0 1
548 0 2 0 14.52577034745687 -3.0536671977749155 -8.514358781355783 0 0 1
192 0 1 0 -10.278519912640334 -0.6912435830990221 -6.023251460518821 0 0 0
321 0 2 0 -13.298745922269475 0.435648925133674 -7.746392510850614 0 0 0
138 0 1 0 -14.527925513804469 -1.6572950971275218 -4.608681208362575 0 0 0
216 0 1 0 -11.714742346548 1.4156169673774837 -7.441511059244879 0 0 0
570 0 2 0 -14.45911238509089 -2.666865633771668 -5.931799724441602 1 0 0
576 0 2 0 -14.991479422218482 -4.9159111454464535 -4.883741294377974 1 0 0
256 0 2 0 -16.013847173306182 0.5575712968557288 -5.914389743142459 0 0 0
480 0 2 0 -13.119120143807834 -0.3522833910428784 -4.285297721011482 0 0 0
158 0 1 0 -11.12765622392581 2.262835605103173 -1.6241465555475707 1 0 0
280 0 2 0 -10.735626065011422 0.09069038032963414 -7.334131488603228 1 0 0
445 0 2 0 -11.22190317921087 1.973076365972715 -8.924303682364824 1 0 1
59 0 1 0 -11.909815822772973 1.3681298462851335 5.25654130260242 0 0 -1
311 0 2 0 -8.305747032663337 -0.24113315110431147 -7.358879542900188 0 0 0
233 0 1 0 -8.113689233281095 0.34270728211611917 -8.675760404611495 0 0 0
497 0 2 0 -8.129874900492327 1.9592579963821217 -3.5353677443472042 0 0 0
717 0 2 0 -4.646900973020854 4.427025936917967 8.198014992101124 0 0 -1
666 0 2 0 -8.1613265670374 1.9224672924461954 -8.972369889261214 0 0 0
306 0 2 0 -8.373155447765841 -0.480692949726312 8.211590310254481 0 0 -1
450 0 2 0 -5.254502670965823 -0.07694074519194692 -2.937017695726764 0 0 0
314 0 2 0 -10.400194770545582 1.5703575561204846 -3.0763683293590827 0 0 0
131 0 1 0 -8.52893333504748 4.040065249153695 -8.985569378055407 0 0 0
555 0 2 0 -7.142667086672534 4.309697012966674 -8.213315206396553 0 0 0
683 0 2 0 -9.502952254518036 -0.19181345595380028 -4.851759152131847 0 0 0
425 0 2 0 -6.725601300927853 -2.347698336766173 -3.3178120747846718 0 0 0
308 0 2 0 -9.372360563158173 4.551913475981909 -7.552739627662879 0 0 1
398 0 2 0 -11.714452914728035 -4.646144294968983 -8.843301472367315 0 0 1
42 0 1 0 -5.526553337678013 -0.12904019519175972 -4.878145124107968 0 0 0
423 0 2 0 -3.9067749303196324 -0.40356857142491803 -5.30031535237778 0 0 0
693 0 2 0 -3.1519817789599696 -2.291902986521092 -6.860112892810907 0 0 0
153 0 1 0 -2.7348653896522865 -1.3083646407395118 -5.816429512504831 0 0 0
451 0 2 0 -0.8294277452406389 0.5555861661680264 -3.8934289321339977 0 0 0
320 0 2 0 2.371829466560031 -0.5414232633992531 -1.4997789491517595 0 0 0
637 0 2 0 -1.7002111048133115 2.8575244535452096 -2.6931417346463027 0 0 0
167 0 1 0 0.6281305192592856 -0.004819413015861987 -1.3742252037094862 0 0 0
696 0 2 0 -5.914008997435589 1.5207660649915686 -5.146574314531461 0 0 0
276 0 2 0 -1.7927839740121234 -0.32383194619789174 -6.272687090600815 0 0 1
24 0 1 0 -0.7724428267810419 0.6645671633310609 -5.486204371652664 0 0 1
388 0 2 0 -3.0717758425793686 3.6398941315081488 -5.237254420906389 0 0 1
581 0 2 0 4.404674859858737 -5.190216565090556 -6.455053220231443 0 0 0
289 0 2 0 2.3833305575719312 -3.9913674568322364 -7.00170573306357 0 0 0
128 0 1 0 3.3772466828416703 -4.375244278170598 -5.784686341490747 0 0 0
392 0 2 0 2.5338176017348655 -0.4528944642372616 -4.1259604722336505 0 0 0
15 0 1 0 3.2772870327998693 -0.37673409426349885 -2.7901278624431143 0 0 0
459 0 2 0 4.784464018522076 -2.471260756221375 -5.890409729656017 0 0 1
132 0 1 0 5.410453375671279 -1.2636667362441347 -7.458819287065407 0 0 1
676 0 2 0 3.15659497314766 -3.6618040315503495 -4.551177298161548 0 0 1
429 0 2 0 5.095007962354234 0.7779502409757404 -6.815090481049083 0 0 1
484 0 2 0 2.608699607672722 3.0741996937875573 -6.485940736547227 0 0 1
566 0 2 0 4.736218434998179 -0.6647277193637466 -3.3226605170729866 0 0 1
360 0 2 0 0.29765373183248406 1.354392363414787 -6.108881207761193 0 0 1
58 0 1 0 1.4548274666517131 2.3479559587142353 -7.406589431779383 0 0 1
101 0 1 0 8.960180952423954 -2.820634454138526 -5.369910087315704 0 0 0
180 0 1 0 7.0694248579871966 2.8036198273625073 -3.7519012202410886 0 0 0
204 0 1 0 5.798326052488999 2.855995778749157 -6.328681862615064 0 0 0
529 0 2 0 10.274494039036844 0.17307768100061136 -5.552180725939483 0 0 0
5 0 1 0 10.425611022182439 -0.6912482757700714 -4.196330884174788 0 0 0
554 0 2 0 6.608609701966175 -0.8460835535519556 -5.083101368431398 0 0 0
559 0 2 0 10.883167129994222 0.7371994873043624 -3.0216269623922427 0 0 0
502 0 2 0 8.288029760051588 1.9507582753679225 -3.1325125237158207 0 0 0
657 0 2 0 6.839315464728139 3.0393488436835407 -5.306130615130559 0 0 0
416 0 2 0 9.492910978111334 -1.9023162379411063 -4.25896110083802 0 0 1
88 0 1 0 9.712176312627298 -0.2910046067798245 -6.993127071335651 0 0 1
270 0 2 0 10.973552002242577 0.03519577617607928 -7.759442796072849 0 0 1
643 0 2 0 11.8081133772415 2.875045887173426 -8.165743969641941 0 0 1
706 0 2 0 8.948988199268918 -1.5777815906178418 -6.921606871124968 0 0 1
399 0 2 0 12.017819148462996 -1.0725790963688098 -4.128893325769757 0 0 0
53 0 1 0 13.817122595707149 1.8609283445282379 -4.512625976844047 -1 0 0
541 0 2 0 14.71735171016556 -1.7330241232774193 -4.324166040407178 -1 0 0
656 0 2 0 15.802423554482564 -1.0036901899246857 -7.733560159898732 -1 0 0
7 0 1 0 11.3618091805618 0.33243562807457155 8.732692860896087 0 0 -1
99 0 1 0 13.40409768894682 -1.0267636642029614 -4.857727107867179 0 0 0
695 0 2 0 13.28584266415564 -3.1308885348497997 -5.948056010284802 0 0 0
210 0 1 0 15.921597116112101 -1.1049348796280285 -3.590474548449372 0 0 0
433 0 2 0 13.588824087139006 0.8312083958357491 -5.633410002984195 0 0 0
628 0 2 0 -16.255029231293552 -1.171788337747356 -4.456669840942 1 0 0
464 0 2 0 13.709421952179724 0.7906393399804877 -8.694686176262787 0 0 1
606 0 2 0 15.043973150486408 3.0533909864190862 -7.840903405965517 0 0 1
147 0 1 0 14.736889279258762 -3.321362978074727 -6.702067339850159 0 0 1
6 0 1 0 -12.473722039123894 6.9831942255440556 8.987853549670298 0 -1 -1
431 0 2 0 -11.11668141657517 6.645915601150786 8.719705531570934 0 -1 -1
521 0 2 0 -16.495052659709387 3.133289322918441 0.8441175459054596 0 0 0
367 0 2 0 -11.085781692135823 2.7536830727679757 -6.828548252600719 0 0 0
47 0 1 0 -13.667432484231421 3.5987869837976842 -8.61131810681525 1 0 0
122 0 1 0 -14.495838855246042 6.636496364286808 -7.328964217148569 0 0 0
205 0 1 0 -10.320482048918558 4.7729859281027345 -6.4918935564080105 0 0 0
614 0 2 0 -13.528154846463796 7.221980567775658 7.518327280809639 0 0 -1
644 0 2 0 -13.243830090731823 6.092241912062616 -7.720522493246135 0 0 0
667 0 2 0 -11.475522564181002 5.364202122907812 -5.677789195893536 0 0 0
393 0 2 0 -11.530226697265562 8.891840047947216 -4.456621628881107 0 0 0
494 0 2 0 -13.390548584751302 7.212744917362124 -4.939561428607289 0 0 0
395 0 2 0 -12.417206474283846 4.359446395412512 8.339223883822983 0 0 0
89 0 1 0 -11.741060475434145 6.309777700082766 -4.6207943626496775 0 0 1
700 0 2 0 -8.2085932963372 -7.8079111642484245 7.850004931886438 0 0 -1
323 0 2 0 -6.4617108359544515 7.024969460210181 -5.375752103196959 0 -1 0
645 0 2 0 -9.148154764548906 -5.235264192561257 8.52835277077846 0 0 -1
65 0 1 0 -7.677199318991972 7.884636797076952 -6.074552434613387 0 0 0
143 0 1 0 -9.83375017463762 7.424709134331049 8.44230060131252 0 0 -1
298 0 2 0 -9.03165748804771 6.871475522812835 -6.010656353589906 0 0 0
313 0 2 0 -9.918301930368752 4.203066550046937 8.037783484703091 0 0 -1
371 0 2 0 -8.911488845793714 7.756331832715505 -8.383768710834678 0 0 0
69 0 1 0 -11.377344135297708 4.620340988662496 7.34464103689987 0 0 -1
230 0 1 0 -8.117522966500015 -6.561634255356456 8.77502583462764 0 1 -1
295 0 2 0 -8.79919730542152 -8.331544260101012 -5.292520549975706 0 1 0
2 0 1 0 -6.75787468751668 -7.735338759772148 -5.274639607429132 0 1 0
507 0 2 0 -8.59995312711688 3.584959073669078 5.580715378659603 0 -1 0
386 0 2 0 -7.049757113967533 3.9724681974972342 -5.437910932418352 0 0 0
211 0 1 0 -1.3329780558935258 3.9584329103160587 -3.7128004737118387 0 0 0
319 0 2 0 0.4675446378954813 3.200678680308418 -8.157981634390005 0 0 0
214 0 1 0 -3.007086164058996 7.481971427505238 -4.207722564424694 0 0 0
336 0 2 0 -4.040395971369707 8.571655312120418 -8.5872560042283 0 0 0
629 0 2 0 -4.500589225942924 7.818120418533753 -3.6085364768312425 0 0 0
655 0 2 0 -6.569334610515791 6.658369798506717 -8.047245540086445 0 0 0
522 0 2 0 -6.188360959750659 -8.561131509422175 -6.707055595793437 0 1 0
406 0 2 0 -3.5621634376064213 8.845457764495348 -5.973082184908323 0 0 0
224 0 1 0 -4.27320198607857 -8.520659159240019 -7.292498164619954 0 1 0
346 0 2 0 -1.3081879827609317 7.598410731625317 -7.354212898860216 0 -1 1
16 0 1 0 -6.575066569472064 5.427753619596771 -7.352236494362846 0 0 1
263 0 2 0 -4.493271857486387 5.603035156862562 -6.837434493032906 0 0 1
702 0 2 0 -2.6928274038200843 5.788603260554624 -4.433079395052408 0 0 1
240 0 1 0 2.743795381163292 2.9358799628059447 -4.932378027417773 0 0 0
703 0 2 0 2.0550807304188052 0.7698617037223534 -8.134004413273884 0 0 0
415 0 2 0 0.6866640298168735 6.327564278175634 -1.985694671478348 0 0 0
275 0 2 0 2.385756631064103 5.952180628236294 -4.098935937604058 0 0 0
632 0 2 0 2.1368368349989924 3.0379413750435407 -3.463943142484554 0 0 0
129 0 1 0 12.544157922390438 6.814038766432336 -5.536670636712656 0 -1 0
340 0 2 0 11.12789587394519 8.100122255271904 -2.888785892222825 0 -1 0
341 0 2 0 8.375063673133827 3.601252374993013 -7.0751066053935645 0 -1 0
443 0 2 0 7.657992919556857 5.6611293306233055 -5.839179974190795 0 -1 0
514 0 2 0 9.848166852242972 7.673297476877819 -5.175845628097117 0 0 0
653 0 2 0 8.232908778210188 4.685345717481143 -1.0790661976146385 0 0 0
226 0 1 0 6.109921527761321 5.749823627355088 -3.012357426788619 0 0 0
234 0 1 0 11.372310732560065 4.231036276009701 -4.581020927411423 0 0 0
229 0 1 0 9.0824164661748 4.7777435307637 -6.5311454590200535 0 0 0
333 0 2 0 10.813861063835166 4.090551517105441 -5.9348892586211095 0 0 0
670 0 2 0 9.97354238191602 8.86062045508672 -7.50603704153587 0 -1 1
647 0 2 0 7.001092672052428 4.387341007866428 -2.9712639609322022 0 0 0
111 0 1 0 6.669669569290099 4.473090363185337 -0.5085748415591264 0 0 0
394 0 2 0 9.56098815837591 5.968639955294681 -7.505956156148967 0 0 1
481 0 2 0 11.710713085745262 6.2891344945949 -3.9904808983094013 -1 0 1
273 0 2 0 5.289898360923036 3.6213489610468668 -7.827067322277781 0 0 1
103 0 1 0 -16.416646674210803 1.3243768793953319 -4.402352922804463 1 0 0
188 0 1 0 14.699999266281043 5.720226572436261 -3.1104149946387007 0 -1 0
203 0 1 0 -15.06078055621422 3.613209212610739 -5.3106898866057675 1 0 0
278 0 2 0 13.797233741790071 8.592191864711136 -8.95274302487137 0 -1 0
356 0 2 0 -13.46671099807093 3.3279323937287835 -7.122172441257781 0 0 0
609 0 2 0 12.654967159089686 3.4464538368385527 -4.457462527707283 -1 0 0
671 0 2 0 -15.712109977110375 7.00103014529992 -8.664186836238203 1 0 0
142 0 1 0 15.78572342034263 3.048063404652892 -6.502149132725763 0 0 0
490 0 2 0 -16.077609121048855 3.128919988565703 -6.519624553196785 1 0 0
520 0 2 0 -15.280108902237542 5.376940339869951 -5.610275378239766 1 0 0
361 0 2 0 -15.286655511235939 2.5783381930045026 -4.017493993311259 1 0 0
404 0 2 0 10.173658344023524 4.085471237037805 -3.5912761041486183 0 0 0
607 0 2 0 14.877798914009052 4.68964192608331 -4.083757686070758 0 0 0
173 0 1 0 -16.30631684441421 7.195172088158693 7.922098419570922 1 -1 0
569 0 2 0 15.84484261834837 2.285801187256856 -4.673182899286948 0 0 1
168 0 1 0 -11.808671016182078 -5.72752215592384 -4.862090270069721 0 0 0
573 0 2 0 -10.862923435853771 -4.4524198656044796 -4.934653175212006 0 0 0
699 0 2 0 -10.543751204800099 -6.55387734112292 -4.326941349727977 0 0 0
178 0 1 0 -13.655549886610972 7.666925101404052 -0.6086167787708014 0 -1 0
619 0 2 0 -12.926464000110109 -5.9796956285822045 -3.4561578584700916 0 0 0
662 0 2 0 -12.67299452440292 -3.3638310819995763 -0.9129497946295495 0 0 0
150 0 1 0 -12.150752587479776 -4.471830749157205 2.05094802981736 0 0 0
29 0 1 0 -14.511188920123145 -5.810418688430668 -3.123252797821113 1 0 0
499 0 2 0 -14.77047283518025 -4.621776780418593 -2.224721005573568 1 0 0
374 0 2 0 -13.608374703451673 8.712200633961722 0.6117109431305008 0 0 0
639 0 2 0 -16.427893257283692 8.59474201738067 -3.890367679135955 1 0 0
197 0 1 0 16.477064548143446 6.898840325888657 2.049744622147953 -1 -1 0
348 0 2 0 14.499500362525003 -7.067043454162374 -1.3623553910946622 -1 0 0
215 0 1 0 -10.019439368775338 -8.20119626925753 -4.298442742042404 0 1 0
112 0 1 0 -11.19340300238422 -3.013797991219672 -2.5860235899668584 0 0 0
535 0 2 0 -4.898942070362477 -8.317713780670934 -0.3456657906580177 0 0 0
444 0 2 0 -10.349346328552759 7.538043780621484 0.6744467828575121 0 -1 0
76 0 1 0 -8.817168872460753 -7.785887107678809 -1.2293010283921966 0 0 0
538 0 2 0 -11.042653275360227 -1.5382574373488502 -2.0224939719045207 0 0 0
140 0 1 0 -6.829096913727194 -5.195741855801435 -1.823162566886107 0 1 0
512 0 2 0 -6.150878297810575 -4.469384980357536 -0.38384559260881157 0 1 0
300 0 2 0 -8.07566637420435 -6.327702641925415 -1.580603294636021 0 1 0
462 0 2 0 -11.086032336901043 -4.824461908077847 0.825591202240774 0 0 0
254 0 2 0 -15.229371447630191 7.103744467904236 -0.8081290683667499 0 -1 0
668 0 2 0 -8.658299031418483 -5.337957710416329 1.0288961926589015 0 0 0
610 0 2 0 -7.885067391947313 8.925040818888915 -0.5462822111013642 0 -1 0
119 0 1 0 -9.427218814485071 -3.9238532853061967 1.0792655507487787 0 0 0
32 0 1 0 -6.097231520181368 -4.085190818506244 1.1594639660637422 0 0 0
304 0 2 0 -2.6802843846467006 -3.769229478140835 0.20655750440639897 0 0 0
328 0 2 0 0.03401270552349411 -4.634128561042959 1.646025666452963 0 0 0
413 0 2 0 -2.349599763504153 -8.452472547080529 -0.8280179136918795 0 0 0
70 0 1 0 -3.143971943345291 -4.644841762618259 -1.3630012757079188 0 0 0
422 0 2 0 -4.682117058768812 -4.700825414604957 1.670076075980228 0 0 0
634 0 2 0 -3.6134315618106134 -6.249584980210444 -1.2204308438552516 0 0 0
652 0 2 0 -0.4093824034968664 -4.295183415486139 -0.808776152842799 0 0 0
474 0 2 0 -2.442155103189131 -4.83138297109813 -2.7420311121173406 0 1 0
36 0 1 0 -1.1270343170843384 8.982655234055567 -1.7135143091857852 0 0 0
134 0 1 0 -3.373736322280206 -7.619520060516443 -0.09744515776917019 0 0 0
350 0 2 0 -2.979448501023926 -7.415256844198073 1.256581752502643 0 0 0
524 0 2 0 2.755046164469868 -8.730504175629 -2.239212677924451 0 0 0
486 0 2 0 2.2609174193772676 -3.6186061106148126 -1.33626489257505 0 0 0
342 0 2 0 4.116706768107441 -1.9125922407671727 -1.1195293071111527 0 0 0
189 0 1 0 1.2945434877443152 -7.702447439471203 -2.291860754150953 0 1 0
149 0 1 0 -0.6150331580750671 -6.065163088757514 3.41816358149208 0 0 0
17 0 1 0 0.929796041041913 -4.305578899135916 -1.999446894841537 0 0 0
200 0 1 0 0.5775913713444295 -8.466601465514504 2.6628611682143184 0 0 0
432 0 2 0 -0.4414811124538866 -3.456727981356719 -3.2904221067176214 0 0 0
506 0 2 0 3.77502715230316 -6.740050037224653 4.0746858176583665 0 0 0
608 0 2 0 1.204517255253491 -5.866355517070728 -1.832031514909238 0 0 0
282 0 2 0 2.774159838051063 -5.996386533154061 -3.5574681147497462 0 0 0
353 0 2 0 2.4682804702758028 -5.988952568311021 1.6733206961737268 0 0 0
334 0 2 0 -0.3370246735844353 -7.34413081421132 2.5951676019357275 0 0 0
164 0 1 0 4.2871443270346505 -8.339907942154912 -1.3276111979585399 0 1 0
218 0 1 0 3.4968585974820097 -5.599040586513767 0.763864981061863 0 0 0
260 0 2 0 4.100077268034287 -3.9304340301176084 0.8101377725480473 0 0 0
227 0 1 0 8.891570768919099 -1.0904395817731574 -1.4794024257158103 0 0 1
33 0 1 0 4.221776749232124 -8.308006843375034 3.67747561682255 0 0 0
453 0 2 0 6.179572500679208 -8.052505491715953 3.3498877323509832 0 0 0
335 0 2 0 10.636603326404018 -3.264278241275843 0.82119914433564 -1 0 0
623 0 2 0 12.52015539539013 -3.6593700716668276 -1.187623889369338 0 0 0
54 0 1 0 13.951005877949534 -6.726909355739781 -2.8262955346137963 0 0 0
707 0 2 0 7.773218412152379 -4.936487898728248 0.9815040077875242 0 0 0
626 0 2 0 12.582528346074687 8.274458464254344 -1.1873036157153276 0 -1 0
540 0 2 0 6.972645501534904 -5.101071605327865 -2.6518815694385975 0 0 0
274 0 2 0 7.218619844233605 -7.495579156351453 0.6568473971419413 0 0 0
48 0 1 0 8.365085995799863 -6.573959554921821 -0.07665661993926604 0 0 0
531 0 2 0 10.045695901883956 -2.2382823327494443 -1.4276411764362504 0 0 0
235 0 1 0 11.028249809278401 -3.463400134241086 -0.9208910337777716 0 0 0
296 0 2 0 12.35931010404369 -3.0221316416197195 2.855095523461538 0 0 0
697 0 2 0 9.729943067742562 -6.04486328018423 -0.06612803489001538 0 1 0
424 0 2 0 4.0234801218231295 -7.285150317616509 -0.34064713945591124 0 0 0
379 0 2 0 4.425873189364751 4.3135134660788115 -1.5372123883709394 0 -1 0
578 0 2 0 7.32940394770498 -1.7036067212871078 -2.0640973775204077 0 0 1
544 0 2 0 7.953306451876636 -7.365006826861949 -1.590169926426445 0 0 1
411 0 2 0 12.219050259654672 -5.602380848255821 1.919834122105926 0 0 0
62 0 1 0 -16.21144991223884 -8.482196777151689 -2.473104493897417 1 1 0
352 0 2 0 14.644526599429113 -7.875162971283698 -3.608664660438416 0 1 0
61 0 1 0 11.419935969145182 -6.522134532974639 0.8871397771357132 0 0 0
382 0 2 0 16.16281593107214 7.409025772044737 0.684537425693881 0 -1 0
491 0 2 0 11.764554256555046 -7.889650802006745 0.34840757867141453 0 0 0
663 0 2 0 -15.908595630198807 -8.64740849788333 -0.9782832706446849 1 0 0
714 0 2 0 13.90136076557933 -0.6902810157857456 -0.4196938552662975 0 0 0
133 0 1 0 15.372036406433436 -6.751108044589209 0.32922003461449534 0 0 0
202 0 1 0 11.576807291661027 -8.443959796592706 -1.0455416055370088 0 1 0
689 0 2 0 -12.681541947609187 2.010232688123941 -2.1391002356829514 0 0 0
345 0 2 0 -12.22154309238567 -3.138178187476364 -3.7735122279658326 0 0 0
347 0 2 0 -13.23580180335799 -0.3777871330175166 -0.8467188246007202 0 0 0
20 0 1 0 -14.058122138856499 1.4804082067283153 2.6935180806366033 1 0 0
45 0 1 0 15.796274710115208 -3.409320252157714 -0.7029289846984049 0 0 0
232 0 1 0 -13.865996749481653 0.7111346251625963 -1.8905174575160142 1 0 0
316 0 2 0 -14.291503671197995 -1.953538866094986 -2.9313700221063046 1 0 0
170 0 1 0 -16.41370427203297 1.7875799631248424 0.12427080365058286 0 0 0
244 0 2 0 -15.397864222422923 1.6589997494788449 -1.4278106161427406 0 0 0
583 0 2 0 -10.375577859630395 -2.2758251926349016 -6.791718655791716 0 0 0
636 0 2 0 -14.041354814201847 1.3790897978137562 1.075081384613237 0 0 0
375 0 2 0 16.11244975753143 1.1937345092379474 3.567005492352635 0 0 0
501 0 2 0 16.336664498928762 -2.0718751799712285 -2.3889157516709916 0 0 0
420 0 2 0 -16.47858173839938 -2.9758385602483797 0.2870149269327768 0 0 0
228 0 1 0 -13.844768837162368 -3.434723744731402 -1.9794361167729362 1 0 0
452 0 2 0 15.949228317302289 3.2883096762402833 -1.8915512614645753 -1 0 0
546 0 2 0 -8.681972532184536 -0.6117773478496047 -2.321813792288002 0 0 0
292 0 2 0 -11.210537144626665 0.9224826705344101 -0.7029906613982959 0 0 0
123 0 1 0 -9.07699494979956 0.7727341900525593 -3.3859327381574027 0 0 0
611 0 2 0 -6.0542585605692185 3.4543678303159453 -2.4376136916869786 0 0 0
269 0 2 0 -11.358021313823434 -1.4581264478960634 0.830922616585898 0 0 0
190 0 1 0 -11.79369533042204 -0.7552332393790262 -0.8033880525895934 0 0 0
633 0 2 0 -8.177756769712344 4.134477397582939 -0.7769312871323565 0 0 0
117 0 1 0 -7.195561137040676 3.1067777795890166 -1.4307478354985048 0 0 0
517 0 2 0 -7.776779498662122 -3.0287758201722084 -1.5161528526530808 0 0 0
206 0 1 0 -7.354740078577605 -0.056145957033182155 -0.22732650883675987 0 0 0
587 0 2 0 -7.851213665519373 -0.6347178849827594 1.2277186968307718 0 0 0
688 0 2 0 -7.838280394570076 1.518081053441128 -0.8348331735284441 0 0 0
381 0 2 0 -6.244167161858185 -1.143562289573294 -0.8826213601363591 0 0 0
264 0 2 0 -1.0969937051222665 1.9405712102521537 1.8280599314042194 0 0 0
377 0 2 0 -1.3745201235634439 -0.48967898496941886 1.2150522234522652 0 0 0
594 0 2 0 -2.7913194610757905 2.1526205115279926 -0.8931930154238107 0 0 0
549 0 2 0 -6.322463907948067 -2.5013906010094202 1.755236326303859 0 0 0
49 0 1 0 -3.924689973648636 2.7375784706969832 -1.6715040341133847 0 0 0
77 0 1 0 -5.501919409586613 -1.6434231695154684 -2.4353412267511167 0 0 0
530 0 2 0 -5.039284414127264 3.0605475043591888 -0.17405457533455698 0 0 0
209 0 1 0 -4.938466389024648 1.998466367920219 1.1305292224811765 0 0 0
90 0 1 0 -0.8148761218235203 -3.7111380618484864 0.6696803756949802 0 0 0
365 0 2 0 -3.636368219325289 0.8866404569961807 4.318664530652414 0 0 0
547 0 2 0 -3.7624015694916535 2.6647962930320728 1.7613260165307087 0 0 0
457 0 2 0 2.53365887384492 -2.0636709278065766 0.858406714403255 0 0 0
593 0 2 0 1.063376852407267 1.5158842657179947 -0.9165515597212853 0 0 0
75 0 1 0 3.216167192505438 -2.982300345772515 -0.1891185130617683 0 0 0
113 0 1 0 3.9405114031780233 1.7573694346772057 1.8184131190937505 0 0 0
401 0 2 0 4.775246137076878 0.34533366296308526 -0.5930512095342722 0 0 0
483 0 2 0 2.9671299323159133 2.497490640488048 0.7036848572631764 0 0 0
43 0 1 0 2.007176856863798 3.1005525549077597 -0.5857128486872063 0 0 0
660 0 2 0 4.354313989382031 2.8609152468622443 -5.2305043361678045 0 0 0
301 0 2 0 3.810028425701374 0.06448415786336063 1.8245594083220549 0 0 0
166 0 1 0 -1.2189394553817403 0.6116010024763039 2.4644971518417944 0 0 0
678 0 2 0 -0.6096896892494165 0.03999770173025274 4.061447912923054 0 0 0
339 0 2 0 5.049931346106116 2.610257287721735 2.8116492453816 0 0 0
127 0 1 0 5.420945055074729 -1.5821120302824387 -4.313908214395787 0 0 0
574 0 2 0 10.474825309475708 2.9169265969914044 -1.0797318268853697 0 0 0
537 0 2 0 7.606697419468936 -1.8737539733354256 0.44688978747989894 0 0 0
250 0 2 0 9.173260111046254 0.3770613550454844 -1.5044592054132733 0 0 0
475 0 2 0 8.868494093192144 -2.8176451252758805 2.467098491443294 0 0 0
487 0 2 0 6.090807353547821 1.8438297322067447 -2.8102161092104656 0 0 0
612 0 2 0 5.8940633574628585 0.6242178648350577 4.835905404179814 0 0 0
91 0 1 0 5.822687155385824 1.5166121639193406 -1.1824612599139233 0 0 0
57 0 1 0 7.451859978386727 -3.235423678924046 1.7130332841626545 0 0 0
625 0 2 0 3.485915059008977 -2.2351130407322857 3.5643284213274002 0 0 0
80 0 1 0 4.845576994767508 -3.1468975669001678 3.6851041624047842 0 0 0
87 0 1 0 3.03812791243776 -0.9092849893043514 2.973218281994426 0 0 0
169 0 1 0 10.23059572039015 1.6183926653128764 -1.9796271322057228 0 0 0
293 0 2 0 5.375466647080037 -2.331278388841972 4.931259047575304 0 0 0
22 0 1 0 10.489664611944653 -2.635741940267729 2.190976891495862 0 0 0
370 0 2 0 6.270825049114991 -2.6850917211255747 2.774673850987174 0 0 0
378 0 2 0 7.329811334409561 3.5105773086134833 4.70289282442359 0 0 0
332 0 2 0 10.066602474507256 1.1433707289289738 3.407671752151689 -1 0 0
473 0 2 0 13.818088645734331 1.7013236398543632 1.1933441864548122 -1 0 0
271 0 2 0 15.943195807937611 0.6232521317798984 0.5036464523897999 0 0 0
414 0 2 0 13.740942498744975 1.1484164318604175 -3.084978558444363 0 0 0
469 0 2 0 14.6286766585724 -1.2749987349432994 2.2852882639839267 0 0 0
35 0 1 0 8.95625376038634 1.9078651130358064 2.4026897596096983 -1 0 0
330 0 2 0 10.511168034347671 -1.0441735927969564 1.2758998500709235 -1 0 0
152 0 1 0 14.409372762033167 0.21579446382237247 0.7699797346224422 0 0 0
343 0 2 0 15.443028141598655 -4.861974950650329 -0.2994749910752682 0 0 0
646 0 2 0 -15.734338164509362 5.667405621747716 1.8535612227850318 0 -1 0
222 0 1 0 -12.435193359986249 7.751004314172115 2.0619391729733763 0 -1 0
358 0 2 0 16.03374565973575 5.208228048637719 0.06579036427703502 -1 0 0
56 0 1 0 -12.94986709498566 8.544271407523398 -3.7676284399259217 1 -1 0
558 0 2 0 15.703658466560093 6.7736872634263845 -2.6767331603916458 -1 0 0
651 0 2 0 -14.324857434613069 -8.731463081483309 -4.175359888743977 0 1 0
463 0 2 0 -10.799884359403725 6.038363984484086 -3.3659022057214125 0 0 0
317 0 2 0 -12.962343930007691 8.243281360066359 -1.8796288059904813 0 -1 0
565 0 2 0 -11.257754379103705 6.316627634417098 3.365309742638699 0 -1 0
510 0 2 0 -11.204344586603638 3.8311208259881235 3.193843204305382 0 0 0
160 0 1 0 -15.985852767738358 4.756663972350378 0.6163793739557758 0 0 0
363 0 2 0 -16.307956730166826 7.751027270020794 3.151831223877289 0 0 0
595 0 2 0 -14.508041234515902 4.726495153616156 0.09054680269299367 0 0 0
241 0 2 0 -12.308780736848501 3.281894506302323 0.4482856978692387 0 0 0
51 0 1 0 -12.978157809651957 4.668031910840635 0.02076747000679785 1 0 0
39 0 1 0 -14.040895660361778 3.715382649852744 4.5715188085748935 0 0 0
412 0 2 0 -12.731612375406671 6.228706669224355 0.22129709871435313 0 0 0
493 0 2 0 14.828618916833047 3.77645242504499 3.395401327288717 0 0 0
194 0 1 0 -10.701332537389426 5.061513736533172 2.6521781163940443 0 0 0