LAMMPS data file via write_data, version 29 Aug 2024, timestep = 50000, units = metal

720 atoms
2 atom types

-17.284862154072343 17.284862154072343 xlo xhi
-8.579178758202412 8.579178758202412 ylo yhi
-8.491043517356887 8.491043517356887 zlo zhi

Atom Type Labels

1 Si
2 O

Masses

1 28.0855
2 15.9994

Atoms # full

692 0 2 0 -12.795646469709332 -5.267244245385481 -5.13602082984384 0 0 0
652 0 2 0 -15.175987842148814 -4.115425997830845 -4.983480168705151 0 0 1
25 0 1 0 -14.295679140386165 -5.393990830470549 -4.578982050442068 1 0 0
554 0 2 0 -14.588821934834684 -3.396204031371348 -7.4153543106406286 0 1 1
599 0 2 0 -14.94731369978409 -6.710866866744108 -5.280985138971742 0 0 -1
199 0 1 0 -14.50740098588378 -8.142405127424382 -5.757021441535785 0 -1 1
689 0 2 0 -16.480403793558907 -6.282779033085053 -8.176979386344517 0 0 1
421 0 2 0 -14.039452307131969 -5.713842010537652 -3.0060445316947817 0 0 0
377 0 2 0 -11.720436246332952 -4.083571742388019 -8.03599294242986 0 0 2
152 0 1 0 -11.66142836226529 -8.498495332173569 -4.555708279304131 1 0 0
257 0 2 0 -11.319187332317078 -6.7584337407972015 -8.012907909094846 1 1 1
283 0 2 0 -10.97444623129936 -8.376917550011754 -6.036742577024064 0 1 0
660 0 2 0 -11.369819671140668 -7.038115710182529 -3.859235661059669 0 0 1
147 0 1 0 -11.27651448645452 -5.57597371397704 -4.634902430539661 0 1 0
426 0 2 0 -10.23729942982997 -5.916109855224192 -5.810614244878259 0 0 1
194 0 1 0 -10.329430945580908 -7.163111128966231 -6.836082525539341 0 0 1
390 0 2 0 -8.18008737929714 -3.971085338130746 -7.629342163469372 0 0 -1
252 0 2 0 -7.547945503616708 -5.896693800785274 -3.1213255192492406 0 0 0
256 0 2 0 -10.902749531934546 -4.388991303505483 -3.643893317316712 0 1 1
629 0 2 0 -8.912155908284673 -7.507761523591004 -7.448724002684351 0 1 0
655 0 2 0 -6.270230114681404 -4.92833137256229 -5.161062319604328 0 -1 1
530 0 2 0 -6.038475020980185 -6.478740984198744 -7.176065531911087 0 0 0
115 0 1 0 -6.149474763701834 -5.218613770906096 -3.6080167126350933 0 0 -1
366 0 2 0 -5.736757984084953 -3.9142092011422136 -2.869095328573862 0 -1 -1
424 0 2 0 -4.86277699774981 -6.156448180956776 -3.486880897908634 1 0 -1
601 0 2 0 -3.8943361074763505 -5.670579298749151 -6.145959403076009 0 0 1
9 0 1 0 -5.4576799998748236 -5.21309365007277 -6.454702521587119 0 0 -1
48 0 1 0 -0.8755231339876133 -5.544267765949881 -4.069455022806212 0 0 0
641 0 2 0 -1.2070751285486807 -4.881600617252923 -5.555836154464832 0 0 0
694 0 2 0 -2.1890640035770055 -6.433671008440525 -3.664758176827063 -1 1 -1
98 0 1 0 -2.653357566346923 -5.83187552309047 -7.102153502262564 0 0 0
96 0 1 0 -0.9138346945627411 -3.379031353282561 -6.0892582059029925 0 0 1
494 0 2 0 -5.2097021757655 -3.8148939301546765 -7.247496121969988 0 0 0
507 0 2 0 -2.175543394948093 -7.2814459641051 -7.464003742706379 0 1 1
372 0 2 0 -0.3833504940233148 -3.371405542852675 -7.644831605463926 0 0 1
532 0 2 0 -2.8216005838209544 -4.653189234236496 -8.177199269972554 0 1 1
580 0 2 0 -0.7086981788212938 -4.4547104541652525 -2.9168659426876244 0 1 0
332 0 2 0 0.4649917045081615 -6.422907123867331 -4.193651370437086 0 0 -1
577 0 2 0 2.262248656641937 -5.480994059468557 -5.80695290916634 0 0 0
27 0 1 0 3.344962755773704 -5.454041238314209 -6.970768896164515 0 0 1
713 0 2 0 4.64416551246649 -6.183450179497729 -6.443640745907308 0 0 1
36 0 1 0 2.0416000801508396 -6.317381290406259 -4.500710306933005 0 1 0
415 0 2 0 2.722249280861721 -7.775460483684737 -4.55983628243748 0 1 1
526 0 2 0 3.6445611210452284 -3.941532787933456 -7.467827914235582 0 1 0
695 0 2 0 2.807860109113328 -6.179635847918613 -8.26767225252666 0 1 1
403 0 2 0 2.8477057844806275 -5.465435658855908 -3.322294534562972 0 1 0
46 0 1 0 6.225016483313137 -5.84386348894426 -6.429781347238162 0 1 1
317 0 2 0 6.672340365082018 -5.292066997686804 -4.994701188675618 0 0 0
663 0 2 0 7.030572386274983 -7.151325898297727 -6.828229293919559 0 0 0
153 0 1 0 7.017023935149314 -5.427790805073745 -3.487261286188687 0 1 1
316 0 2 0 6.462815312799393 -4.670534173629429 -7.5798357030609 0 0 0
468 0 2 0 7.318060987274528 -6.966766645680906 -3.2236590108366947 0 1 0
209 0 1 0 8.547117984043108 -7.8885221728689 -3.696062477149084 -1 1 0
458 0 2 0 9.604996082621287 -7.094102480552134 -4.603916253100273 0 1 0
497 0 2 0 9.441062474362429 -6.559283265806156 -7.637810983599661 0 1 1
196 0 1 0 8.289855575076349 -7.715387025188261 -7.740689091340122 0 1 1
356 0 2 0 10.616305426105086 -4.397307386581318 -8.036160663840363 0 0 1
57 0 1 0 10.946828683915982 -5.896818946329612 -7.5480706506429325 0 1 0
67 0 1 0 7.3609448228598175 -3.3174607214706304 -7.711172800494333 0 0 0
308 0 2 0 8.311561020129165 -4.509592212742209 -3.09190249031597 0 0 0
76 0 1 0 11.140238340064968 -7.221569869515183 -4.939623626090963 -1 1 0
522 0 2 0 8.301232333032733 -3.2494421380111405 -6.40316344943153 0 1 0
578 0 2 0 11.43064881729115 -6.0745407311860165 -6.010279139263003 -1 0 1
592 0 2 0 13.254098148068518 -3.9991422091627316 -6.874998579115203 0 0 1
296 0 2 0 16.558880357444586 -5.8529256680157316 -6.0757249406317735 -1 0 0
437 0 2 0 16.27165633081836 -7.158354182573341 -3.844260359567751 -1 1 1
151 0 1 0 15.48387560545359 -6.501989843575825 -5.092845150021397 -1 0 0
518 0 2 0 16.579916612645476 -4.072316123483847 -7.8625484322635355 -1 0 0
168 0 1 0 16.75052233486415 -5.658859252552035 -7.637756400137571 0 1 1
509 0 2 0 11.981816908581088 -7.176364166183524 -3.536768068891452 -1 1 1
557 0 2 0 14.546237957509213 -5.403250601840256 -4.378305526117771 0 1 1
410 0 2 0 14.78612540715475 -7.747258971572258 -5.821523769229475 -1 2 0
107 0 1 0 14.774645681971109 -3.946727542301268 -3.6667509214105705 0 0 0
392 0 2 0 13.42639120739872 -3.319649548567102 -3.0262245950329127 0 0 0
624 0 2 0 15.516926597742405 -6.299980862492381 -8.424043092389986 -1 0 1
373 0 2 0 15.303360036520523 -2.828594651280998 -4.722080507425574 0 0 0
63 0 1 0 -15.169947414752848 -2.8392978840506604 -6.015905007959724 1 0 0
489 0 2 0 -16.659140337355677 -2.3103587842359383 -6.398885172634205 0 1 1
295 0 2 0 -14.237655479316338 -1.5217019531658664 -5.687947783846356 1 1 1
286 0 2 0 -11.970844460135787 0.6638545340422475 -3.572602673511428 1 0 1
419 0 2 0 -13.350853763189214 0.9835877705318214 -5.729603315766171 1 -1 0
89 0 1 0 -12.98237149525593 1.6829169987654566 -4.2950101547170725 0 0 1
631 0 2 0 -12.82536576142228 -0.6590219868411964 -7.873127213479142 0 0 0
142 0 1 0 -13.079194849759077 -0.5421056648920963 -6.296079393184278 0 0 0
556 0 2 0 -17.1763501057407 -0.7837273633599109 -3.2412107238532286 1 1 0
279 0 2 0 -11.70785885221737 -0.9207069313713694 -5.56204151117367 0 0 -1
615 0 2 0 -14.18419779111557 2.055326849068363 -3.284399523186228 0 0 1
564 0 2 0 -11.957555542912129 -1.814519861119142 -3.1337611977830475 1 0 -1
617 0 2 0 -17.210726970980954 1.3351218426541145 -4.75442087755056 0 -1 1
125 0 1 0 -15.374557190761887 2.904695997775864 -2.7412454817927676 1 0 1
224 0 1 0 -11.278833373102852 -0.6916858200711529 -4.103787714562545 0 0 1
428 0 2 0 -7.215055872984845 -1.1994299742822276 -3.5552421808644317 0 0 0
31 0 1 0 -8.600697309052325 -1.9453794306592362 -3.8329700840996077 0 0 0
86 0 1 0 -8.287397478814464 -2.613805912433426 -6.792111842634397 0 0 1
436 0 2 0 -6.885171987812635 -1.9014068529326913 -6.979866046102899 1 0 1
520 0 2 0 -8.499493044821216 -2.8176470731068157 -5.184688048498869 0 0 1
633 0 2 0 -9.70372465051497 -0.8221123096662426 -3.9226481495019137 0 -1 1
401 0 2 0 -7.811920225715188 1.9214963412208128 -7.14455802180904 0 -1 1
608 0 2 0 -9.358042155131336 -1.7223942562312082 -7.508793084266862 1 0 0
90 0 1 0 -6.274740377851133 1.4849416036668561 -7.37052779093059 0 0 0
163 0 1 0 -6.6419750619038584 0.15510847641616543 -3.026980817272367 0 -1 -1
626 0 2 0 -9.91283314513324 2.8446403666334934 -8.449505976678886 0 0 1
551 0 2 0 -2.2183047790361012 -2.4870565039009875 -5.660681184428115 0 0 0
513 0 2 0 -5.336379884601813 0.8240388527913254 -3.5055124644472135 0 -1 0
304 0 2 0 -5.5417202266378816 0.9406309284483338 -6.065292934497082 0 0 1
178 0 1 0 -5.365402136537178 -2.2710937947414838 -6.7742149352368495 0 0 0
108 0 1 0 -3.3853838933060327 -2.0122658247035536 -4.680669551814065 0 1 2
450 0 2 0 -4.821416217376083 -2.054766441533104 -5.295353748593433 0 0 1
259 0 2 0 -3.2271846235252912 0.35052434022760615 -4.900848161558437 0 0 1
136 0 1 0 -1.7029579543861981 0.7832822047254027 -4.772449426593593 0 -1 1
145 0 1 0 -4.536993365214343 1.2696175752681143 -4.86958919920367 0 0 -1
511 0 2 0 -1.5097234189471394 1.9881773049168938 -3.6849915584146045 0 0 0
701 0 2 0 -1.1728614329868101 1.2505696148964063 -6.182084610176892 0 -1 1
438 0 2 0 -4.494955252565266 -1.3441290586745147 -7.71336935472308 0 1 1
529 0 2 0 -0.7702217259218074 -0.49103227316192566 -4.340107000132393 0 0 0
398 0 2 0 -3.5139070172255114 -2.3577425723868304 -3.1538906871436527 0 -1 1
141 0 1 0 0.09648557737584795 2.05658862757522 -6.841783159398214 0 0 0
381 0 2 0 0.42372304862391985 1.4975375449598474 -8.32759421680637 0 0 0
407 0 2 0 4.658963843225806 -2.578977830455152 -5.1299822344727195 0 -1 0
614 0 2 0 0.2930969655028406 -2.76271774675228 -5.201723388586396 0 1 1
158 0 1 0 5.139017377469006 -1.2706330398383825 -4.441923228409196 0 1 0
361 0 2 0 1.7327787452455148 -0.6945366018270631 -4.900070189466364 0 1 0
228 0 1 0 0.45393192074151045 -1.5056427648388695 -4.2712520478714655 0 0 1
120 0 1 0 2.3343384755374075 0.34086704520655786 -5.951144482883075 0 0 0
569 0 2 0 3.9385535335980038 0.431368531647939 -5.705403087591627 0 0 2
446 0 2 0 2.2322581321526727 -0.14076626554616567 -7.476453698834883 0 0 1
343 0 2 0 1.3913629969333066 1.6296429757493005 -6.015688551399478 0 0 -1
118 0 1 0 4.918619856978356 1.2622576427383922 -6.684103687501099 0 -1 1
574 0 2 0 1.062700333093666 2.5613721765007966 -3.4559478851754566 0 -1 0
667 0 2 0 5.158691967071757 0.3732835067932889 -7.980229283608837 0 0 1
150 0 1 0 2.6369649415845053 2.606501169492798 -3.1530663451313927 0 -1 0
312 0 2 0 4.018772416235354 2.638754977201785 -6.8892261848227925 0 0 1
350 0 2 0 4.589373516995543 -0.9148290486907618 -2.9980794699144067 0 0 0
517 0 2 0 6.629517727864954 -0.807822918500654 -4.716118745903875 0 1 1
698 0 2 0 6.191961986511696 1.7171034020289344 -5.915416322827288 0 0 1
501 0 2 0 10.86062732189913 -2.9349015517139714 -5.766959556453395 0 0 0
155 0 1 0 9.47649810367761 -2.213369266661661 -5.884310896907522 0 1 1
208 0 1 0 8.085574439923949 -0.32766858329396165 -4.206820094477909 0 0 0
432 0 2 0 9.101232616588614 -1.5573977828899634 -4.468947853011332 0 0 1
255 0 2 0 8.213726527678133 1.3267369550554733 -7.532729711762265 0 0 1
475 0 2 0 9.513984590048413 -1.0958267867846088 -7.094653329571285 0 -1 0
637 0 2 0 8.527078397888257 0.933277502866467 -5.0963318708043435 -1 0 -1
230 0 1 0 7.784544480366474 1.9307603117344296 -6.083341056023507 0 0 0
225 0 1 0 9.37863192363669 0.28909171000700695 -7.948647074309485 0 0 0
597 0 2 0 10.74667169735692 1.0248934499228834 -7.69386141998652 0 -1 1
635 0 2 0 6.515958067412935 -1.8917980858483485 -7.7683208566853175 0 1 1
130 0 1 0 12.391261143566815 -2.901887146544336 -6.163212978146631 0 0 -1
172 0 1 0 16.691985256736565 -2.605017160123702 -7.342104768640938 -1 0 1
408 0 2 0 15.484107038921145 -1.6916400025451788 -7.046220668602381 0 -1 1
538 0 2 0 13.227554110562021 -1.6456279109734329 -5.764902501994693 0 0 0
195 0 1 0 16.459487203223418 0.2994190490950501 -3.8966462782651314 -1 -1 0
537 0 2 0 13.36801874039314 1.287217008649602 -7.0745096054506895 -1 0 1
340 0 2 0 15.29578132895719 -0.18769090349094952 -4.853278626970424 -1 0 0
97 0 1 0 14.796948753980324 -1.5211997109888342 -5.572150140913725 0 0 0
348 0 2 0 15.647138788508336 2.3520178497536577 -6.4402623988802725 -1 0 1
93 0 1 0 12.260820321448449 0.7679987177604026 -8.154745136798587 0 1 0
52 0 1 0 14.017421041208944 2.6439101913343883 -6.488575499525652 -1 -1 0
62 0 1 0 16.978673664785177 2.6460985525137968 -5.591514319574252 0 0 0
679 0 2 0 12.246825405829696 -0.7606792642747227 8.461655613206355 0 1 -1
288 0 2 0 -12.185789194656632 3.0354491861642323 -4.582743376444441 1 -1 0
697 0 2 0 -16.30290864695743 3.15422218262529 -6.4142727381570115 0 -1 0
66 0 1 0 -16.172409536381227 4.222938413089041 -7.636655493057792 1 0 1
368 0 2 0 -13.225776786381124 8.44440875204675 -4.950777639663625 0 0 -1
616 0 2 0 -15.65550168149369 8.178950455194288 -6.410042557488556 0 -2 1
386 0 2 0 -16.62699979668998 5.735227171056831 -7.281484821529673 0 -1 0
129 0 1 0 -16.630581938464285 6.872189354637781 -6.131740215918084 0 -1 0
352 0 2 0 -15.982775167011816 6.144311260008466 -4.811652757592551 1 -1 -1
237 0 1 0 -16.01792260559387 5.8799114880317465 -3.24619987578565 1 0 0
342 0 2 0 -14.632375223483837 4.292828904369369 -8.042736396397277 0 0 1
568 0 2 0 -15.263757540646502 4.496416137427049 -2.771942413915892 0 0 0
405 0 2 0 -9.757407037753406 2.76767942733996 -5.707467121855981 0 -1 1
162 0 1 0 -9.039450743545428 2.9876088248071326 -7.2046945022095406 0 0 1
675 0 2 0 -9.958389164236614 3.0400615066374854 -3.187549589172284 0 1 0
270 0 2 0 -10.750585900818454 7.540178176878447 -3.856732393733929 0 -1 1
186 0 1 0 -10.596858587166686 3.4559339070892623 -4.568408661447509 0 0 0
482 0 2 0 -10.654161978768283 6.099386920632856 -7.625011980881293 0 -1 0
149 0 1 0 -9.042787109813496 6.0629104686378135 -7.22916320807266 0 -1 0
430 0 2 0 -10.51334647264791 5.033506872464773 -4.570536438751638 1 -1 1
565 0 2 0 -8.92658374099615 6.616939832481918 -5.674530258731835 1 0 0
83 0 1 0 -9.82247737404786 6.408226137289857 -4.387873904825912 1 -1 0
539 0 2 0 -8.497408838038039 4.5343187596356 -7.238526240819973 0 0 0
467 0 2 0 -8.293656757473643 7.171570925994587 -8.163355912955828 1 0 1
135 0 1 0 -6.535747553070493 5.4309180462247095 -3.3193682578975032 0 0 -1
603 0 2 0 -7.480669268458202 6.824604683012401 -3.1136643018567183 0 -1 0
287 0 2 0 -7.745821176624066 4.321008085006191 -3.1440012007272937 0 0 1
636 0 2 0 -5.632637515054467 5.07303973407639 -4.561223687192812 0 -1 0
294 0 2 0 -4.219461714011716 2.8760502408440036 -5.043374855785965 0 -1 0
596 0 2 0 -5.567372795417246 2.8887588058719604 -7.584731277152172 1 -1 1
434 0 2 0 -4.145675165113332 7.383717659404821 -3.460104788086709 0 0 0
583 0 2 0 -1.6039464676008706 6.682309554663984 -3.557122928632583 0 0 0
21 0 1 0 -4.124952622726145 4.502108069019657 -4.87688004600299 0 0 1
498 0 2 0 -3.290640679246698 5.105005932454214 -6.106421700125339 0 -1 0
75 0 1 0 -3.1389212269034648 5.706002212856202 -7.6159926259685236 0 -1 1
519 0 2 0 -2.925034714990508 7.3115929640885255 -7.726191552028634 0 -1 1
418 0 2 0 -3.2834744361855677 4.904221147196779 -3.563620966503999 0 -1 1
177 0 1 0 -0.3299891534655899 4.625933870764836 -8.20685790213863 0 0 1
101 0 1 0 -0.2368361090824962 5.875027605448164 -3.5448582260620354 0 0 0
344 0 2 0 -1.9090636934250362 4.935991009515659 -8.396427440120478 0 0 1
227 0 1 0 -3.059692818297002 6.361372552954975 -2.945809749907883 0 -1 -1
691 0 2 0 -0.20559762393070713 3.5966010682848424 -6.993396233084155 -1 -1 0
478 0 2 0 0.40219956382394884 5.914981845203277 -7.63301726888362 0 0 0
277 0 2 0 0.28376571559070385 5.628100026795719 -5.018546313504672 0 0 1
493 0 2 0 4.436784746826181 7.5125398809992365 -5.805067328119817 0 -1 0
82 0 1 0 3.085425007562545 7.856404839567693 -5.034638300745975 0 0 0
452 0 2 0 1.931434225317929 7.398863013246675 -6.050171762735661 0 -1 1
185 0 1 0 1.239282852481935 5.935597394785251 -6.301503146828438 0 0 0
222 0 1 0 3.7257922716858793 3.908104607141615 -5.8900357193738 0 -1 0
477 0 2 0 2.4011882503876443 4.779076102844137 -6.237271882408397 0 -1 0
292 0 2 0 4.952757111905473 4.86581030183819 -5.927848973055875 0 -1 1
674 0 2 0 3.462785844950613 3.2590795184524417 -4.397815229979169 0 0 0
87 0 1 0 5.487447060656503 6.273368627882682 -5.445290830060168 0 0 0
620 0 2 0 3.128013046949061 6.883822949294133 -3.780968623939227 0 0 0
632 0 2 0 5.58745168176511 6.232740600506952 -3.8810300138910527 0 0 0
417 0 2 0 8.814514214588197 8.098043899487523 -7.099654506812232 0 0 1
666 0 2 0 10.192531020599265 3.8631024057121213 -6.95353781954059 0 0 1
271 0 2 0 8.0514456076831 3.4755138334603064 -5.82450838842202 0 0 1
504 0 2 0 10.070071378056106 3.7932601525201584 -4.304927720496173 0 0 1
23 0 1 0 10.599065709631024 4.40664000887352 -2.95191063804275 -1 1 0
268 0 2 0 8.131731650529623 8.01146232842706 -4.602973998367604 0 0 0
138 0 1 0 9.419333874599864 4.321160921570501 -5.632829198038837 0 0 -1
555 0 2 0 9.276860851305514 5.91440626563868 -5.703745487529796 0 -1 1
174 0 1 0 8.258418757096248 7.143481062252485 -5.95304650812515 0 0 1
383 0 2 0 6.840026492268336 6.562502562870293 -6.271104296442884 0 0 1
388 0 2 0 10.115550333200119 6.01829121999225 -3.01193346316924 0 0 0
355 0 2 0 11.563604586168772 8.438171899432701 -5.588013573246702 -1 -1 1
471 0 2 0 15.670581039950399 8.377694068559917 -8.149511134050165 0 0 2
313 0 2 0 16.449722167845835 7.357379946156483 -5.864156793876916 -1 0 1
374 0 2 0 13.477851056386303 3.2439702796308136 -5.0692955034423415 -1 0 1
365 0 2 0 13.677677990660673 3.712387589780164 -7.696645576707998 0 0 1
627 0 2 0 16.57907801361651 3.8102014839750673 -4.532374914856 0 0 1
26 0 1 0 15.22871944114695 8.054428404251441 -6.611262198046697 0 0 0
448 0 2 0 13.794205406168437 7.242557194600812 -6.627184122302335 -1 -1 1
201 0 1 0 15.942317565662123 4.6337169170609585 -3.246275426763513 -1 0 0
165 0 1 0 12.413590197454305 7.133508157203488 -5.9317248251387 0 -1 1
702 0 2 0 12.382197673231897 5.662096032022893 -5.250194731951584 0 0 1
229 0 1 0 13.14284785652703 4.596414961067202 -4.265251660632294 0 -1 0
542 0 2 0 12.174130428578817 4.3116113258523345 -2.9921671132656673 0 -1 0
545 0 2 0 14.538117715698828 5.265685629523233 -3.7495741508733387 -1 -1 0
644 0 2 0 -13.022692405396551 -7.868811148617878 -1.70743635476419 0 0 0
240 0 1 0 -15.448278224841305 -5.091649706063456 0.4077701089816159 1 1 1
322 0 2 0 -14.366189563410858 -6.061123460968844 -0.3452244418242678 0 0 0
336 0 2 0 -14.688549205417704 -3.7603519894615136 0.6617421515211941 0 0 0
53 0 1 0 -14.235249168629492 -6.773854849156836 -1.7855609999841127 0 1 -1
594 0 2 0 -16.71575374540505 -4.83813900325469 -0.5662322041588537 0 0 0
505 0 2 0 -16.032752660117225 -5.731486311915097 1.7885993052041744 0 -1 0
714 0 2 0 -15.62457164438866 -7.536835784189464 -2.000607261064337 0 1 0
124 0 1 0 -12.017134854172316 -8.429044895242319 -0.5451997417523247 0 0 1
112 0 1 0 -17.132846009541126 -6.615539389579119 2.6207754808198054 0 -1 0
492 0 2 0 -16.73326273559536 -8.14634404534826 2.3952991720907217 0 -1 1
324 0 2 0 -12.900821340429392 -2.7712127978293095 2.216180113502892 0 0 0
203 0 1 0 -10.171810794671345 -4.052605359385569 -2.2617156929353426 1 1 0
221 0 1 0 -8.591232605135726 -6.502831514156469 -2.135026780499426 0 0 1
604 0 2 0 -8.580994559123909 -8.065086986390238 -2.1098254131839296 0 0 0
433 0 2 0 -10.842473369574808 -7.379850101815915 -0.1745927449968434 1 0 0
400 0 2 0 -9.634483790817928 -5.458924677348529 -1.7377181079793598 0 0 0
439 0 2 0 -7.017025036049146 -4.012674736300958 0.27491294515374065 0 0 1
205 0 1 0 -6.767706183935751 -5.588741055649308 0.4641175157010444 0 0 0
422 0 2 0 -8.231332302670653 -6.380297299552631 0.24550291102691446 0 1 -1
218 0 1 0 -9.662968756670834 -7.023662845288637 0.8606464392036219 0 1 0
305 0 2 0 -11.090656169035078 -3.2870178430854375 -1.2241617476439366 0 0 0
298 0 2 0 -10.119188736077344 -6.0705997463086945 2.0146867024194712 0 1 0
521 0 2 0 -6.196903566889745 -5.911555944542462 2.0142250863502067 0 0 0
487 0 2 0 -6.047388453916641 -8.422389011154683 -1.9935163296824152 0 0 0
416 0 2 0 -5.838401431887201 -6.219125950715805 -0.6602763012134591 0 0 0
41 0 1 0 -3.435729273314399 -6.159935489238402 -2.6943816811202312 0 1 -1
154 0 1 0 -5.071015720982166 -7.589607034052067 -0.9813978960863716 0 1 0
251 0 2 0 -3.614432448062388 -7.277381916938674 -1.54918034731089 0 1 1
402 0 2 0 -1.0006411638536115 -4.423361678283053 2.0983096753912616 0 0 0
589 0 2 0 -1.0431462356830679 -5.313467284772139 -0.3947297731801527 0 1 0
169 0 1 0 -1.0673195344856445 -5.773689929094227 1.1636734274082379 0 0 0
242 0 2 0 -2.354727312177676 -6.5627177885621375 1.5484177104149328 0 0 0
643 0 2 0 -3.482275807102315 -4.662163218362149 -2.0016121876037465 0 0 0
198 0 1 0 -4.383811297198083 -3.2886313208362434 -2.1112240765085772 0 0 1
719 0 2 0 -4.982210213966447 -8.37750465153798 0.43676675156668665 0 0 1
369 0 2 0 -0.3062420323078392 -2.888245705147951 -0.7999995937166284 0 0 0
34 0 1 0 -0.1630721419662855 -4.407332159706502 -1.3764355872248233 0 0 0
642 0 2 0 -3.1779782747710605 -2.874346560790257 2.537015453643356 0 0 0
474 0 2 0 0.2794851765561077 -6.6396234635534315 1.5772611420226266 -1 1 -1
593 0 2 0 3.8528373508830214 -4.3466985382412595 -0.8978140537677843 0 0 0
3 0 1 0 2.829886213057648 -5.457779728120812 -1.7044633732514596 0 0 1
647 0 2 0 1.3047713542671424 -5.017191495662347 -1.3513530346487759 0 -1 -1
300 0 2 0 4.3103779244672396 -3.4294408104071064 1.7792821425359069 0 0 0
119 0 1 0 3.2035481606112164 -3.9074784709328103 0.6095754354934808 0 -1 0
669 0 2 0 3.2525513166518216 -6.975674307000891 -1.1679173046833204 0 2 0
193 0 1 0 4.390793019703722 -8.124847502079918 -1.0068248761755632 0 1 0
579 0 2 0 2.4859763009610454 -5.236424249769053 1.1319177562915197 0 1 0
560 0 2 0 2.664021178330003 -7.697941068957631 1.8664328879529055 0 1 -1
204 0 1 0 1.8551437517229274 -6.402123890339261 2.0753210064588075 0 0 0
235 0 1 0 5.496291919387922 -4.251897520689992 -1.1648534387592475 0 0 0
406 0 2 0 5.72937758939889 -7.436671713057344 -0.45112207416510763 0 -1 0
357 0 2 0 5.879407091524737 -6.567632631402878 2.0985707096343322 0 -1 0
420 0 2 0 5.826999330398653 -4.937352170957551 -2.554485604658538 0 1 1
384 0 2 0 10.823854763922036 -3.6670665794902 -2.5095285118296253 0 0 1
311 0 2 0 6.160260504145903 -5.008559601127386 0.0909782134284356 0 1 0
216 0 1 0 6.4317238564874195 -6.490247557047697 0.6394917154891058 0 1 -1
29 0 1 0 9.290651466039812 -3.9803314260137093 -1.95507098861924 0 0 0
20 0 1 0 9.326298897523806 -5.967774936639637 0.5242991407249882 0 0 0
253 0 2 0 9.097155833499183 -4.899055287771612 1.6841553322695262 0 1 0
707 0 2 0 7.992775675772631 -6.89553156611541 0.5297924620278263 -1 0 -1
334 0 2 0 10.667120551761375 -6.747313249979213 0.8436287427487326 0 1 0
512 0 2 0 9.411406426114016 -5.228658573221649 -0.9452285656776578 0 0 0
7 0 1 0 10.990061729998406 -7.741164060307672 2.0992430840463427 0 1 -1
576 0 2 0 9.5647057350223 -8.046020086164134 2.7550555473339866 -1 1 0
414 0 2 0 6.0853483132666 -2.7716848754152945 -1.1214744309421834 0 1 1
74 0 1 0 12.960010740607082 -6.851734183037449 -2.3594884663026043 -1 0 0
462 0 2 0 14.237277088760827 -7.780030863080503 -2.29480093993 -1 0 0
375 0 2 0 15.987144630823785 -6.408707346554 -1.2830432576276944 0 0 0
104 0 1 0 15.824683050421555 -7.563601913948704 -2.3525147058395808 0 0 0
232 0 1 0 16.278152677390985 -4.78298680602674 -1.0249221381709726 0 1 0
175 0 1 0 12.315419521098825 -3.89171359877827 -1.995879010878622 0 0 0
453 0 2 0 12.721576117476307 -5.443086251129531 -1.7350736685814807 0 1 0
276 0 2 0 15.436000803908989 -4.4010239554465995 0.3122998546193738 -1 0 1
349 0 2 0 15.800057755382063 -4.135291179243278 -2.4192213745464386 0 0 0
571 0 2 0 12.474068599971396 -3.0698875936353236 -0.5806968377511659 0 1 1
110 0 1 0 15.503981349866123 -4.777626246178576 1.8316327182889864 -1 0 0
397 0 2 0 15.984203142495943 -6.399187646382231 1.9612394486903924 0 1 0
284 0 2 0 13.72864529523262 -7.195942347185392 0.5891909929413472 -1 -1 0
11 0 1 0 14.94972892037405 -7.660807372558433 1.4956339369809282 -1 1 0
459 0 2 0 16.67289928788496 -3.955966321132962 2.6272680847381285 -1 0 -1
263 0 2 0 -15.647386785971056 -2.657181072858963 -2.547083287752865 0 1 1
109 0 1 0 -14.414564569183149 -2.5241347270953156 1.6937893830472408 0 -1 0
105 0 1 0 -16.429974793247496 -1.443215648261491 -1.9052263076908105 0 0 0
514 0 2 0 -16.68578995065602 2.39921294016011 -2.0368417635573497 0 0 0
254 0 2 0 -13.276928778902441 -1.6839009253933206 -0.8765929816972031 0 1 0
536 0 2 0 -13.14200066683247 0.7517451778857609 -0.1526048796638797 1 0 0
528 0 2 0 -14.682674076719506 -1.0652024360749515 1.0780141339035882 0 1 0
238 0 1 0 -14.182106115655571 -0.4623952753985705 -0.3348200076815804 1 0 0
337 0 2 0 -15.420054379842451 -0.3251610550531172 -1.3187818468510137 0 1 0
341 0 2 0 -14.556952610128091 1.9704639113012554 2.4838173276097013 0 -1 0
85 0 1 0 -11.84100011729496 -1.9136935783712996 -1.5747250999315456 1 0 1
586 0 2 0 -8.923451443204971 -3.091461646069261 -2.686159165599606 0 0 1
180 0 1 0 -11.521549614328674 0.45542290512609007 0.07652385750462187 0 0 1
444 0 2 0 -11.536346121588213 -0.33677693704284195 1.5234716873020009 0 -1 1
30 0 1 0 -6.074771597210912 -2.6462209707287396 0.3634476527586674 0 0 0
380 0 2 0 -10.969922804778381 -0.6211896916319182 -1.0078181886083302 0 -1 0
353 0 2 0 -10.662163069950243 1.7942302157452268 0.1465027562515253 1 0 1
207 0 1 0 -9.14429163982564 2.3203733327573346 0.4146625079312951 1 0 0
360 0 2 0 -8.178522984557546 1.026881923172846 0.6589145521414572 1 0 0
315 0 2 0 -6.833851752342163 -1.2379569660163767 -0.05178192016138894 0 1 0
65 0 1 0 -6.961587260685153 0.3788001959604994 -0.16258780110310056 0 -1 0
495 0 2 0 -7.3191651449224775 0.5660163489998631 -1.7103360759155004 0 0 0
470 0 2 0 -5.5934191197810375 1.0876879946973688 0.2770817910203771 1 0 1
600 0 2 0 -5.684836750652995 -2.591732848314906 1.9610092480025116 1 0 0
712 0 2 0 -1.47730722194669 -0.7677346526250881 -1.5701257226475827 0 0 0
445 0 2 0 -4.855906138218703 -2.7439630444881002 -0.70846267150419 0 0 0
440 0 2 0 -4.293004840583906 -0.5619889858992551 1.729724339662587 0 0 0
127 0 1 0 -4.656502637851137 1.03450227973582 1.5586259611725382 0 -1 0
443 0 2 0 -0.7236078903846668 1.218748123976205 1.0880004842892994 0 -1 0
111 0 1 0 -1.8170634574978646 1.7550882036312903 2.1459544438511795 0 0 1
364 0 2 0 -3.2754506681115867 1.7710256607697499 1.4572028958742411 0 0 0
325 0 2 0 -0.30157908795916555 2.23244265552999 -1.265864270953318 0 0 0
14 0 1 0 -4.403951319190979 -1.8836474714815576 2.6732687697176942 0 1 0
233 0 1 0 -0.3783224871630537 2.760332811218479 -2.8035508417867794 0 -1 0
132 0 1 0 -0.007147836306458544 -1.4227659349299469 -1.352943219723775 0 0 0
703 0 2 0 3.199899874048068 1.1753071391200614 -2.653060079705382 0 0 -1
503 0 2 0 0.7891242965583096 -1.791760872357262 -2.7589880028172047 0 0 0
499 0 2 0 -0.18700842292109243 -1.52822219388048 1.589183028165781 -1 0 0
665 0 2 0 2.125835716780074 -2.7260574897935985 0.3884803666813319 0 0 0
128 0 1 0 0.3772711917094149 1.283440149246454 -0.13340964660420163 0 0 -1
621 0 2 0 0.8358675378746057 -0.17662089490601218 -0.7062240669203232 0 -1 0
164 0 1 0 4.342201578239223 0.2981765172299671 -1.983752128985473 0 0 -1
157 0 1 0 1.3760187797035393 -1.7931134548452965 1.531428205375338 0 0 0
389 0 2 0 2.4768835719120403 -0.5774721956082534 1.7824459499931002 0 0 0
258 0 2 0 3.8482550043665 -0.3192101199881936 -0.5586510174802797 0 0 0
213 0 1 0 3.8410638876748315 -0.06407266335264339 1.0266877232751686 0 0 0
584 0 2 0 3.931163608921093 1.5013905966080117 1.3178711368007203 0 -1 -1
266 0 2 0 5.162355674151353 -0.7864518498142798 1.5575799265050172 0 0 -1
541 0 2 0 1.638919815198662 2.10503449399903 0.44448586656873346 0 0 -1
33 0 1 0 2.8858399380920154 2.7100948265163414 1.2560871640758204 0 0 0
559 0 2 0 5.670122474570615 1.1964876688139778 -1.7678416213085804 0 0 0
548 0 2 0 8.621151866370639 -2.7274679155552066 -1.2225997537280957 -1 2 1
645 0 2 0 7.959935981295775 0.19914610245922404 -2.7162254865782574 -1 -1 1
581 0 2 0 10.877055809215456 -2.4879247809222136 1.3117109230109012 -1 0 -1
133 0 1 0 6.538301128509509 -1.3082514752862409 2.2475881901151578 0 1 0
10 0 1 0 7.241247936151268 0.8541468439068147 -1.4522500725643726 0 -1 1
706 0 2 0 8.030220608366761 1.9569524137317842 -0.7160139130638479 -1 0 0
610 0 2 0 7.173665891005772 -0.4498431765279989 -0.5038266776774236 0 0 0
590 0 2 0 7.361775897106735 -2.2558058348946624 1.1930500951650327 0 0 0
15 0 1 0 7.348648815486371 -2.0468944756618273 -0.37298457893756876 0 0 0
525 0 2 0 7.3496944418252355 -0.06234813465746569 2.7103527587447473 0 0 -1
250 0 2 0 11.05659850482417 -0.8723658783568622 -0.7884605952352617 0 0 -1
595 0 2 0 11.530390604269954 1.26202602522123 1.463672951965231 0 0 0
709 0 2 0 17.134509830144893 1.1278654516000515 2.2540776854584976 0 0 1
496 0 2 0 15.726806131424325 1.1948909099346636 -2.793896301236262 -1 0 0
619 0 2 0 17.06112752164905 -1.867454324355153 -0.8467046695357601 0 0 1
84 0 1 0 16.879111546577512 2.2880828064508396 1.1672158167311224 0 -1 0
192 0 1 0 11.806558684703699 -1.8371066608932418 0.1789784124471403 0 1 0
558 0 2 0 12.928679388109028 -0.9160839792836812 0.9295329431650057 -1 0 0
376 0 2 0 16.32406327740909 1.7765874132156263 -0.24172823144382072 -1 0 0
19 0 1 0 16.289969210008785 2.247590471228218 -1.7528996554720244 0 0 0
140 0 1 0 12.835404021822232 0.4645780039650358 1.8209740064433664 -1 -1 -1
591 0 2 0 14.14114870645389 1.3665869188994986 1.6438292347444978 -1 -1 -1
718 0 2 0 -16.288300634612984 3.0422955578035253 0.8888794267661311 1 0 0
687 0 2 0 -12.963218519985256 8.495477320672721 0.7838957834225742 1 0 0
486 0 2 0 -16.24992607526854 7.9841932658774315 0.04008370661709648 1 0 0
72 0 1 0 -16.317091616104413 8.273713519210188 -1.5318595326826863 0 0 0
442 0 2 0 -12.256554032185027 6.200819902323586 1.9378748282893756 0 -1 0
45 0 1 0 -12.258480568607364 4.652817708759137 1.357149693779645 1 -1 0
598 0 2 0 -13.808067046669434 4.089409683722982 1.1980385010848416 0 -1 0
116 0 1 0 -13.26383116232251 7.503903140505228 2.007443223448842 0 -1 0
354 0 2 0 -15.566373723889477 7.116057558834781 -2.3640503970346405 1 0 0
68 0 1 0 -15.058338130979621 3.3712475089237426 1.9048584746927375 1 0 0
243 0 2 0 -14.683200508574902 6.758451410437052 2.064956165586727 0 0 -1
314 0 2 0 -17.135422687085015 6.416043266148645 2.167575141275961 0 -1 0