LAMMPS data file via write_data, version 29 Aug 2024, timestep = 125000, units = metal

720 atoms
2 atom types

0.910613605402169 24.821358534097605 xlo xhi
1.6226588965158513 18.962918815084215 ylo yhi
-1.2373348834162652 21.822912595017083 zlo zhi

Atom Type Labels

1 Si
2 O

Masses

1 28.0855
2 15.9994

Atoms # full

418 47 2 -0.55 2.54667691788236 7.205549328108757 0.4196002250688222 -1 0 0
390 44 1 1.1 2.28893456820663 5.605760727607398 0.2598301058850887 1 0 0
23 3 2 -0.55 3.2359219157129586 4.819999258587041 1.2999762133733461 0 0 0
539 60 2 -0.55 5.201117881237533 6.917411742507004 3.4704786060390145 0 1 0
629 70 2 -0.55 2.599886029060693 6.970589583978474 3.822320450196994 0 0 1
611 68 2 -0.55 5.197960154673647 3.1131230092052644 2.2820615913845756 1 0 -1
80 9 2 -0.55 2.0169786800587604 3.3714483522837417 3.8496557319017004 0 1 -1
145 17 1 1.1 3.9471447746519814 3.341744324711156 1.301743278682784 0 1 -1
93 11 1 1.1 1.6264852248020922 2.2654826365826644 2.7001769291279523 -1 0 0
53 6 2 -0.55 2.769016313615947 2.290416226051793 1.6272468270658074 1 1 0
115 13 2 -0.55 4.4226022078820435 3.057202118767305 -0.19463843173856432 1 -1 0
45 5 2 -0.55 6.147338674545366 6.374027575331518 1.1224931976492085 1 -1 0
120 14 1 1.1 6.582537357559991 6.404667718234314 2.6780860540082814 1 0 -1
514 58 1 1.1 3.982979923700012 6.399618416088986 4.418629171328432 0 1 1
108 12 2 -0.55 6.643427611422397 1.884436113845245 -0.5880519931727419 0 1 -1
6 1 2 -0.55 2.6773991420642926 5.290250606860226 21.820989109748165 -1 -1 -1
389 44 1 1.1 6.763722950191848 3.492723569913257 2.4819498442432293 1 0 0
168 19 2 -0.55 6.71533505800052 4.911036272934358 3.210709239925488 0 1 1
693 77 2 -0.55 7.325888771097788 3.7076516041316725 0.9808745050717254 0 0 0
335 38 1 1.1 7.929809290747233 2.6196136910107115 0.005799689689420795 0 1 1
601 67 2 -0.55 10.212509873528123 5.371693391000031 3.184159939045202 0 0 0
311 35 2 -0.55 7.646260237629417 2.350355532003123 3.1248966474874225 0 1 0
530 59 2 -0.55 11.996433635844339 2.962817748966433 1.427351656471362 -1 0 1
58 7 2 -0.55 11.537842456965288 4.9429757692698395 -0.8641335336462239 1 0 1
377 42 2 -0.55 9.873007810815265 7.065989950642193 -0.07215674057333432 0 0 1
417 47 1 1.1 11.467995568988501 5.456497212644479 4.112938479639133 0 -1 0
178 20 2 -0.55 12.621563561323816 4.395499944822625 3.5116410793347184 1 2 0
35 4 2 -0.55 7.800418620051653 7.304506736152011 3.0918497530236166 -1 -1 0
547 61 2 -0.55 11.999258272868518 6.998911532827637 4.322244551392251 -1 0 0
504 56 2 -0.55 12.216606603865822 7.339536837297892 -1.125407016170442 -1 -1 0
651 73 1 1.1 10.903526767442596 6.391809432628833 -1.133748589805466 0 -1 1
37 5 1 1.1 13.186459336381342 3.7176902818842237 2.0892905446112913 0 0 -1
572 64 2 -0.55 13.823253529592774 4.843979814036082 1.0688688303717306 0 1 1
671 75 2 -0.55 15.818985641636795 6.601583972512005 0.4943677868936549 0 -1 1
641 72 1 1.1 14.564094560685408 6.203152106190044 1.3682405156946351 -1 -1 1
519 58 2 -0.55 15.004719311336002 5.93555872616012 2.9325005112784 0 1 0
258 29 2 -0.55 14.480074838285258 2.7276862764803056 2.3946455086474017 0 -1 1
526 59 2 -0.55 17.393909284181547 4.746715801967289 -0.2304429496135849 0 1 1
317 36 1 1.1 17.38758723920807 6.169291044705031 0.509065819357738 0 0 0
180 20 2 -0.55 17.791058935745863 6.367326132381964 2.096471776437752 1 1 -1
83 10 1 1.1 18.190306412716005 6.979702171155385 3.5257441537429592 1 0 0
1 1 1 1.1 15.326365687486817 6.68885223600645 4.370041440821157 0 -1 0
24 3 2 -0.55 18.33913526218473 7.218100157296164 -0.21747397473002295 -1 -3 0
259 29 2 -0.55 24.651685527017815 5.202309483887389 0.6190043305784056 -1 0 -1
198 22 2 -0.55 23.568639756749494 2.3033616319677463 -0.4392478275074454 -2 0 0
61 7 2 -0.55 22.203263924312523 5.82156430087843 -0.05982684227325219 -1 0 0
64 8 1 1.1 23.105180653452763 5.517072633765795 1.184824490349869 -1 0 0
177 20 2 -0.55 23.316972577038936 6.884847639518244 2.0226063240934766 0 1 0
167 19 2 -0.55 22.540080816083968 4.40959317629928 2.233618952552159 0 0 -1
274 31 2 -0.55 24.06849576717973 2.1661288840483506 2.0953183894653957 -2 1 1
710 79 2 -0.55 19.692034698719056 6.5770757001018625 3.8742940605064113 0 0 1
694 78 1 1.1 22.1156012284168 4.264492906058955 3.845667132676196 0 1 2
459 51 2 -0.55 20.609337707233454 3.7269765105485457 4.018752190988873 -1 1 0
665 74 2 -0.55 22.15015108247482 5.770108938545054 4.476376368126737 0 0 1
66 8 1 1.1 23.28776498312473 18.754386930927534 0.9503962740965135 -1 -1 0
650 73 1 1.1 5.947878137260859 7.44044625391396 -0.0711629436086163 0 1 2
98 11 2 -0.55 2.5923531119043233 9.670510102268784 -0.08494774667457006 -1 0 0
487 55 1 1.1 2.09106989130542 8.517846327362548 3.7124748398016694 2 -1 0
445 50 2 -0.55 2.967013054789247 9.03254711194004 2.4044139541263823 1 -1 0
291 33 1 1.1 3.2663639230803825 8.605568603340837 0.8521166631418517 0 -1 -1
358 40 2 -0.55 4.8441794547821075 8.469527577382472 0.5684933298616988 1 0 0
403 45 2 -0.55 2.5100408062395854 11.63756431767783 4.047358096361344 1 -1 0
607 68 2 -0.55 4.9688053312571006 12.13570719061519 -0.8457330030817711 0 -1 0
191 22 1 1.1 6.330206110235211 11.294986045539247 -1.055445280900367 -1 0 1
603 67 2 -0.55 6.91117083989405 10.908312321221503 0.4173634472620382 0 0 0
161 18 2 -0.55 7.102446358502185 10.166050018846969 2.97385878622263 -1 0 0
125 14 2 -0.55 8.927338066965842 9.471208914532161 1.2438996052471523 0 -1 0
237 27 1 1.1 7.889045700929909 10.60598302706929 1.6526782076065376 0 0 1
202 23 2 -0.55 8.526248305361676 12.02106952761882 2.129025819633431 1 0 1
355 40 2 -0.55 11.165933692348746 9.138253743685503 3.1465137705619535 0 0 -1
199 23 1 1.1 8.999411427069361 8.424665874144605 -0.07367758051871065 0 -1 -2
31 4 2 -0.55 11.460224379121831 11.447878614059048 2.0207577716804037 -1 -2 -1
557 62 2 -0.55 7.419631678763036 8.061252989212026 -0.3502427050659046 -2 0 1
434 49 1 1.1 11.98420161240923 9.941826272070118 2.0405400802396096 0 0 0
34 4 2 -0.55 11.963897345899161 9.252430434662905 0.6122906964745674 0 0 1
435 49 1 1.1 11.86167301696085 12.96053529799506 1.7412382707196041 0 1 0
632 71 1 1.1 12.946051465268912 8.263713867135134 -0.13586606084903874 0 0 0
562 63 2 -0.55 13.514900568382242 7.356290461306686 1.1028950792129089 1 0 1
630 70 2 -0.55 17.95976603936247 8.549688734712674 3.7021584486730728 0 0 1
441 49 2 -0.55 18.061549425672872 9.828300115662833 1.5061180478311185 0 -1 0
376 42 2 -0.55 13.53924759430182 9.944380433910123 2.523344893649704 0 1 1
29 4 1 1.1 17.652514015420383 10.032131878007673 3.0583952561839025 1 0 0
373 42 2 -0.55 16.097549904066245 10.479777294020108 3.2063180416159005 -1 -1 0
156 18 1 1.1 14.728676148423627 9.87581857086284 3.643659164408353 0 0 1
476 53 2 -0.55 17.76916622213018 12.215749869190757 0.3515019419495842 0 -1 1
453 51 1 1.1 17.897143627095815 10.555763520238306 0.07554223096019386 -1 0 1
367 41 2 -0.55 15.60668017047749 12.966015997564167 1.6830357694219988 -1 0 2
537 60 2 -0.55 16.41383809872852 10.031261336920151 -0.3754684755518318 0 -1 0
428 48 2 -0.55 18.520339435579405 11.247682698127074 3.54041823823621 -1 -2 1
193 22 2 -0.55 15.10908489510367 8.207743091814775 3.935094349539936 0 1 1
477 53 2 -0.55 14.079271230857211 9.21290860832027 -0.7977789775178354 -1 0 1
385 43 2 -0.55 18.974686039706796 9.758346657845024 -0.8636406668421142 0 0 0
556 62 2 -0.55 24.429872040284693 8.720002146409652 3.4786507657668153 -1 -1 0
631 71 1 1.1 23.14319367245992 8.35771276922357 2.59944665069416 -1 0 1
412 46 2 -0.55 22.89174211731911 9.597983808107024 1.578453585765704 0 1 0
204 23 2 -0.55 20.811496983645448 11.110071284284139 1.4788860426813626 -1 0 0
190 22 1 1.1 21.61009939165661 9.916881318273902 0.7509340731349841 0 -1 0
656 73 2 -0.55 20.634118591554895 8.600546111994952 0.6991713088797453 -1 -1 0
107 12 2 -0.55 21.81892630304384 10.468821650127024 -0.7664706001539011 -1 0 1
154 18 1 1.1 21.120744500988607 12.58155316470903 1.9371539260408794 0 0 0
323 36 2 -0.55 20.704909993937285 12.627010373758516 3.473003407285285 -1 -1 -1
496 56 1 1.1 19.361620241887465 12.456883206114965 4.286176636015244 -1 1 0
375 42 2 -0.55 21.86826111804516 8.197922072326612 3.591487633642232 -1 0 0
534 60 1 1.1 19.60744598556515 8.21862613300065 -0.4784861211464517 0 1 -1
59 7 2 -0.55 22.69007628965199 12.766512250261302 1.9209502293267704 -1 -1 0
395 44 2 -0.55 23.18510556394541 8.020400756784742 -0.85895937122542 0 -1 -1
462 52 1 1.1 2.61172242119948 13.029523629336081 3.336215685840341 2 -1 1
72 8 2 -0.55 1.3201648702851625 13.078785936233553 2.4107473151173346 1 1 0
265 30 2 -0.55 4.073490833408753 13.470175131643535 2.823798396886067 1 1 1
285 32 2 -0.55 1.85589194998315 18.258210964515094 3.532098769623121 1 -3 0
264 30 1 1.1 5.222911644378392 14.513114424486181 3.335729001784985 1 0 -1
248 28 2 -0.55 5.764106665982252 15.468881154050555 2.1691581840960636 0 -1 0
600 67 2 -0.55 1.0793983054849956 15.115698659253596 -0.11279860425933763 -1 0 2
414 46 2 -0.55 6.572348975469847 13.838075430690635 3.97844622065723 0 2 0
40 5 2 -0.55 2.2416404768422886 14.260258697682906 4.334477550708656 1 0 -1
51 6 2 -0.55 6.935250028103607 16.15839011542993 -0.05236954432995433 -1 -2 -1
616 69 2 -0.55 4.4630952162663196 15.459263754798522 4.3924555404036 1 0 2
148 17 2 -0.55 12.234118707119261 13.156963202974275 0.1809651414349016 0 0 1
293 33 2 -0.55 9.233958467124362 13.247416568522985 -0.10317629540298756 1 0 1
324 36 2 -0.55 8.609824856219475 18.881007574281337 0.9470486583297726 0 1 0
46 6 1 1.1 9.013302711713997 13.36775884798044 1.4842987227909554 -1 -1 1
498 56 1 1.1 7.168934513981258 15.960667113682511 1.5295332742938608 0 0 0
643 72 2 -0.55 10.509447438756885 13.73740960348919 2.0844434626048107 0 1 1
319 36 2 -0.55 7.779152098839212 17.101526704616123 2.4451525208779756 1 0 1
7 1 2 -0.55 11.502590730828649 17.1904611731026 0.9914712944022459 -1 -2 0
181 21 1 1.1 11.395393809157802 17.617362673252316 2.5218462178089425 0 0 0
371 42 1 1.1 11.063230965485717 16.940857267353877 -0.5781287239633288 0 -1 1
521 58 2 -0.55 10.01069024288604 18.41696411170475 3.0042636338775486 -1 1 0
77 9 2 -0.55 8.093578583500005 14.635694782162846 1.6112861576643072 0 0 1
236 27 1 1.1 8.523419568304874 18.51796883483965 2.484069525253483 0 -1 1
359 40 2 -0.55 11.19933905469746 16.29065011531825 3.353560021020198 1 0 0
555 62 2 -0.55 9.000551888759246 15.134526039890014 4.331562208347541 -1 0 -1
619 69 2 -0.55 9.990083211172042 15.7505279237209 -0.6012305390348149 -1 0 0
528 59 2 -0.55 15.907686504536931 13.140124144534214 -0.9525096301084571 1 1 2
644 72 2 -0.55 13.110484432926125 13.401046814873128 2.6588962534345137 0 -1 0
286 32 2 -0.55 12.876343701403908 18.176215880689256 2.9365626830299787 -1 0 0
578 65 1 1.1 16.638183815383904 13.376782239875382 0.46609660651491214 0 0 0
522 58 2 -0.55 15.162030242688418 13.439911449064589 4.266947876952367 -1 1 0
478 54 1 1.1 14.66594112551846 13.739146745249581 2.7520404043562343 0 0 1
670 75 2 -0.55 16.77023263078274 14.989819230961876 0.6770581041072004 0 -1 1
39 5 1 1.1 15.338533320042144 16.011072551236833 1.0018631165978604 -1 -1 0
27 3 2 -0.55 14.684070601467932 15.262312069224421 2.2312732489178932 0 -1 -1
206 23 2 -0.55 14.611002096629731 15.894562736554166 -0.4338519700948885 0 -1 0
450 50 2 -0.55 15.219301337761488 17.62365181706813 1.5465094287385095 0 -1 0
687 77 1 1.1 14.470103342905935 18.467536563730704 2.7170234329426313 0 1 0
194 22 2 -0.55 16.834411942347224 15.926572593282584 4.169774624629611 -1 0 1
564 63 2 -0.55 18.538773549915256 13.816795673942714 4.231827647310376 0 0 1
203 23 2 -0.55 15.160325841441535 18.070187278664953 4.1166765902183915 0 -1 0
149 17 2 -0.55 21.708117645165 18.819868540722112 1.0906204505544075 0 -2 0
243 27 2 -0.55 23.449088704648553 13.488280987278362 4.308341921388063 -1 -1 -1
479 54 1 1.1 23.74812910581599 13.631417591575053 2.7295853602610793 -1 -1 1
570 64 1 1.1 19.76957893281302 17.88940349593045 4.001055140676642 -1 -1 0
95 11 2 -0.55 19.356490708191593 18.28754667147123 2.475878001699372 0 -1 1
153 17 2 -0.55 19.795892190878913 17.934002718624683 -0.3577401546918276 0 -1 -1
249 28 2 -0.55 20.49887473536515 13.73486967183842 1.0172054956588807 0 -1 0
3 1 1 1.1 20.310237626098377 17.946999335395915 1.2363841805833826 -1 -1 0
636 71 2 -0.55 23.804089903866632 17.269638192689257 0.6313767860657236 -1 -1 1
591 66 2 -0.55 23.675296265172186 15.087867576580575 2.1686792051446515 -1 1 1
469 53 1 1.1 23.713958741211698 15.64390994953072 0.6640762206197184 -1 0 0
495 55 2 -0.55 20.746772732814257 16.375290839077724 1.4172477059293551 0 -1 -1
649 73 1 1.1 20.879099519843443 15.139642740108043 0.3675320230038046 0 1 1
548 61 2 -0.55 22.420570976028635 15.011769823195667 -0.04652804467305249 -1 -2 0
189 21 2 -0.55 21.356774986459403 17.819648970883836 4.250668398847936 0 -1 0
639 71 2 -0.55 20.02816350979339 15.544874546481118 -0.8670225807059133 -2 0 1
126 14 2 -0.55 19.26510060866472 16.455443310118874 4.481322079860351 0 0 1
608 68 2 -0.55 3.9350975700033706 4.8543346665642595 4.64678293356184 1 1 1
137 16 1 1.1 2.91493961924248 3.7025370201018832 5.103812305518116 0 2 1
391 44 2 -0.55 6.260359353149973 6.592655866918995 7.357121056629056 0 0 0
675 75 2 -0.55 5.349064034041276 2.728047575096676 7.7373255669995515 1 0 0
9 1 2 -0.55 3.784556873851834 2.4734921204189817 5.5991036504651595 -1 -1 -1
164 19 1 1.1 2.3460353785658024 4.985994933865358 7.881474692861277 1 -1 -1
52 6 2 -0.55 2.0460588531741077 3.8289349597051396 9.131935152965562 0 1 -1
481 54 2 -0.55 3.9309528956413553 5.442193843702201 7.798866267529785 0 0 1
585 65 2 -0.55 2.0722094682833214 4.30413284215434 6.393532429403338 1 -1 0
559 63 1 1.1 4.677029989585309 6.788838021901889 7.348752057037768 0 -1 1
492 55 2 -0.55 1.5984006905251587 6.331140042748082 8.299455828326758 1 0 1
682 76 2 -0.55 4.156851547191623 7.032185843898571 5.875276862553267 -1 0 0
451 51 1 1.1 1.5625006032409616 7.046630946739407 9.751500380669128 0 0 0
468 52 2 -0.55 6.752483473818946 4.122913977771828 9.562099796754898 1 0 0
523 59 1 1.1 6.790508442221238 3.3481830088970628 8.085054675302304 1 0 1
640 72 1 1.1 4.481881527366026 1.6855405017410696 6.824321121067223 0 1 1
297 33 2 -0.55 24.80133549090209 1.6652294889448778 5.9837897513854585 -1 1 0
499 56 2 -0.55 7.311837730432347 4.2935533957004575 6.916991592142459 0 1 0
133 15 2 -0.55 7.880440509743434 6.338553099616984 5.319903515010521 1 0 0
472 53 2 -0.55 11.109924832704609 4.908561295544242 5.656792735970003 0 0 2
244 28 1 1.1 7.554632028922445 5.853033924809518 6.781429655949182 0 -1 1
566 63 2 -0.55 7.850765929087942 2.1801244169311222 8.359350889511427 0 -1 0
580 65 2 -0.55 10.911337396834442 4.5300800915430175 8.423561275609162 0 -1 0
406 46 1 1.1 11.7597778593989 4.988402079747903 7.168162411073048 -1 0 1
700 78 2 -0.55 8.780881067687357 6.3228246170401405 7.680570240602629 1 0 0
79 9 2 -0.55 12.367039658762296 6.452743358560268 7.3081003886411136 0 0 -1
460 52 1 1.1 10.968251322608909 4.021055660962915 10.00780582388913 -1 0 0
544 61 2 -0.55 9.8763798444691 2.805543941988031 10.090915196950183 -1 1 1
348 39 2 -0.55 7.414168228899222 7.154443245945882 9.753123116797838 0 1 0
101 12 1 1.1 9.207217402669524 1.6755232434780938 9.17822101106621 0 0 0
232 26 2 -0.55 9.966321560139706 7.338548087240815 9.804976229652036 -1 0 0
666 74 2 -0.55 12.460069615479062 3.3204770822484253 10.250756885878774 1 -1 1
505 57 1 1.1 8.76297017411298 7.396352868470494 8.85405816175382 0 0 0
349 39 2 -0.55 13.019774726340763 3.901102464299299 6.998269435083268 0 0 -1
100 12 1 1.1 13.156455899922484 2.422783369005483 6.50668889262957 0 0 -1
356 40 2 -0.55 16.940048088355645 6.311581888367575 4.749804737146068 0 0 1
257 29 2 -0.55 14.431365027271678 6.373979701859581 5.69795145861711 -1 0 0
327 37 1 1.1 17.56155669980596 5.454837286356097 6.022291938869547 0 0 0
716 80 2 -0.55 16.410499946002087 5.201597285887933 7.1090461627956145 0 2 0
217 25 1 1.1 15.867846690779565 5.682460922906916 8.60178903053245 1 0 -1
535 60 2 -0.55 14.690268696421724 6.701343898138093 8.42705636567853 1 1 0
458 51 2 -0.55 15.38867256134717 4.431429813420737 9.464791065625262 -1 1 1
225 25 2 -0.55 18.326329747116354 4.19436791731181 5.417190937388205 0 -1 -2
109 13 1 1.1 17.898523755858673 2.495237044059567 8.818486684693385 0 1 -1
157 18 2 -0.55 16.863150895975288 2.191567478557751 7.669114559018373 1 2 -1
581 65 2 -0.55 17.0962052085918 6.374244998157085 9.347736105504522 1 0 0
489 55 1 1.1 13.870283388856114 7.034945003398349 7.069043158476491 0 1 1
689 77 2 -0.55 18.663286065327316 3.8613201291968693 8.34998015190035 0 1 0
683 76 2 -0.55 18.60554289952085 6.514927043687252 6.6937030981628345 -1 1 0
256 29 2 -0.55 17.154997090804994 2.8443482143654046 10.219182284230246 1 0 0
182 21 1 1.1 21.174155127355657 7.034337248425502 4.446944786307014 -1 -1 0
657 73 2 -0.55 23.133263558190194 3.3078328553203615 4.706788819500773 -2 -1 1
426 48 1 1.1 19.617579706911346 3.224150774417969 5.213025379322891 0 -1 0
363 41 1 1.1 23.890520393260527 2.9421039848981083 6.057447246437964 -1 -1 -1
306 34 2 -0.55 20.493362357733048 3.3443515544481013 6.540113709388906 0 0 -1
407 46 1 1.1 20.253428473249986 4.050943928153492 7.9621088530019914 -1 -1 0
384 43 2 -0.55 23.572410518950143 3.753659479604128 7.329729757782804 0 0 0
628 70 2 -0.55 20.699606117119366 5.571539874244592 7.774689552982837 1 0 -1
464 52 2 -0.55 20.986774443268974 3.155443305536931 9.127570806108741 -1 1 -1
361 41 1 1.1 20.034543030654135 6.884970016084151 7.173143528396995 0 0 1
90 10 2 -0.55 19.186900829994038 1.7171532671491534 4.937598857747541 0 0 0
47 6 1 1.1 20.52231195611249 1.7046014393834574 9.731884835075846 -1 0 1
575 64 2 -0.55 20.84054481418458 7.531344236897962 5.907861795318175 0 -1 1
491 55 2 -0.55 2.552184447766802 9.312426930989371 5.013531679370046 1 1 0
347 39 2 -0.55 5.7961287162922455 11.060161726921454 5.022010503551874 2 0 1
525 59 1 1.1 2.2606520269538244 10.840848443418468 5.392807278897961 0 0 -1
474 53 2 -0.55 4.315422244856766 8.119542611253872 8.20468172255934 0 0 0
571 64 2 -0.55 3.4645445783780966 11.33595495826907 6.324005383085686 0 -1 1
48 6 1 1.1 5.083155552192221 11.454640891769051 6.424655712499429 -1 0 0
22 3 2 -0.55 5.536384286584739 10.337955599785015 7.517728729076758 1 0 0
111 13 1 1.1 4.798375809714457 9.530791465729006 8.646605729719996 0 0 -1
679 76 2 -0.55 3.4661806663944112 10.32196143379008 9.094291071919516 0 0 0
62 7 2 -0.55 5.8486732530163 9.325710290839439 9.87255552208562 1 -2 -1
138 16 1 1.1 1.9615159171347836 10.191759029169285 9.60489643940371 0 1 0
558 62 2 -0.55 5.454273032069898 12.934472568421066 6.9713011070895075 1 -1 0
531 59 2 -0.55 1.5921237987181285 8.716779047713766 9.993261972490894 2 1 -3
116 13 2 -0.55 24.788209912274382 10.628889468309433 8.429564215690462 1 -1 0
720 80 2 -0.55 24.69269397116378 10.941130941546069 5.934652637886597 0 0 1
388 44 1 1.1 11.204717241307188 8.392800891523635 4.55352121979197 1 0 2
452 51 1 1.1 8.166242437037031 7.695932977428483 4.60827753667465 -2 1 0
227 26 1 1.1 7.135193253882197 10.384612412634715 4.5591759455652126 0 -1 0
486 54 2 -0.55 9.720263684838669 8.071365307743193 5.038410548763189 1 1 1
288 32 2 -0.55 7.256729059133675 8.87760190368353 5.130107674614257 0 0 0
490 55 2 -0.55 11.93959235206257 9.335014725921965 5.6380055312476856 0 -1 1
573 64 2 -0.55 8.454890693280383 11.187618074615028 5.011075905293024 -1 -1 2
457 51 2 -0.55 8.73066288209531 8.858635866357538 8.230915969638565 1 -1 0
387 43 2 -0.55 8.660579537823214 11.396208262046217 7.583969421483818 0 -1 0
569 64 1 1.1 9.202352083823667 10.296613283559923 8.626379935186227 0 -1 1
276 31 2 -0.55 10.796964608225306 10.305728005103834 8.570655183475536 0 0 -1
561 63 1 1.1 12.327983317611688 10.842750460786862 8.961878555516432 -1 0 1
129 15 1 1.1 9.046418391510691 12.068948730758096 6.185335910833373 1 0 0
179 20 2 -0.55 10.650998440249241 12.339936227135773 6.214324034803817 0 0 0
707 79 2 -0.55 12.530424263510875 12.202824285724216 9.863155421403498 0 0 0
409 46 2 -0.55 8.791783057673056 10.746288576449153 10.0973189654541 -1 -2 0
121 14 2 -0.55 9.643539865596022 13.191283841066284 10.222676214285556 1 -1 -1
150 17 2 -0.55 12.864248944606961 9.654582458188404 9.887378107848546 -2 1 1
440 49 2 -0.55 13.118076517554234 10.977736143353075 7.53831571186498 0 -1 0
444 50 1 1.1 13.36916187033467 9.96893171578181 6.2971324467034595 0 -1 0
423 47 2 -0.55 14.004527415289862 8.585028582261698 6.890220673492669 0 0 0
67 8 2 -0.55 14.170583667354332 10.499478067242498 5.053979730901393 1 -1 1
661 74 2 -0.55 18.177474757239654 8.651883603653724 10.01503285756459 0 1 0
70 8 2 -0.55 17.55350963706665 12.527049457459063 7.433798098766609 1 0 0
88 10 2 -0.55 18.65994828276011 10.177590417024817 7.729720196349508 1 1 -2
714 80 1 1.1 18.95930574388644 11.670284964423438 7.303627990586586 -1 1 0
690 77 2 -0.55 19.49247535685343 11.920085382169372 5.788530464138309 0 -1 1
160 18 2 -0.55 23.865246434108613 8.619754001052176 7.0143143108080555 -1 0 -1
15 2 2 -0.55 19.98104100381325 7.939092298856047 8.327361719819821 -1 -1 0
309 35 1 1.1 23.911053325049178 10.16682763088424 7.125120515143616 1 0 0
155 18 1 1.1 19.22258827297193 9.20625797668388 8.890311837821994 1 1 0
261 29 2 -0.55 22.35120511881822 10.728548451306905 7.403861877259393 0 0 1
238 27 2 -0.55 20.256715458846195 12.171825049544239 8.110809170243115 1 0 -1
568 64 1 1.1 21.809815419719662 12.209998240291148 7.777582422581814 1 -1 1
437 49 2 -0.55 20.27598441486692 10.065143745406015 9.76870432883399 -1 0 1
44 5 2 -0.55 22.568599040742228 12.553137313207824 9.20777733756256 0 -1 -1
448 50 2 -0.55 1.5509459921232671 18.626914405957255 9.545175245939758 1 -1 1
123 14 2 -0.55 2.4015891325493737 16.67565683331177 5.5103976951529265 0 1 0
622 70 1 1.1 2.408043076811503 17.588771374598785 8.74131189974567 1 -2 0
467 52 2 -0.55 3.332579496285103 18.386861364641838 7.711919043523581 0 0 0
577 65 1 1.1 3.1157461060770832 15.257826797524496 5.248301853882477 0 -2 0
688 77 2 -0.55 3.4046723191295776 16.73880738041707 9.693858132422333 0 1 2
503 56 2 -0.55 5.531967547218828 15.4417942688098 7.625165992219808 0 0 1
151 17 2 -0.55 3.997959411584824 13.788987916375314 8.982955926451979 -1 -1 0
518 58 2 -0.55 3.3872528689103865 14.464547057894206 6.567285898765084 0 -1 0
218 25 1 1.1 4.604136793513394 14.153218818445781 7.547402375929311 0 0 0
16 2 2 -0.55 5.440619935567685 17.787667546906505 6.372875360583014 1 -1 -1
541 61 1 1.1 6.407213955953725 16.59920218981435 6.81134755478031 0 -1 0
447 50 2 -0.55 1.4456474219961963 16.56881992287031 8.067044645508416 0 -1 1
704 79 1 1.1 1.3108317336789936 17.788746937017194 4.99718678837608 1 0 1
205 23 2 -0.55 6.0758781680501714 17.16104260219896 9.84947331107737 1 0 0
642 72 1 1.1 10.35395250241484 15.8502295620802 4.656715063978726 0 1 1
699 78 2 -0.55 11.927540695667936 18.873570356558435 6.097747145979025 1 2 0
239 27 2 -0.55 6.977659998441985 15.862349876504664 5.5359440228493195 -1 -1 0
50 6 2 -0.55 10.213264661822231 18.664130407074286 7.978649782449523 -1 0 0
97 11 2 -0.55 7.649438402273663 16.90889093843183 7.810199372134466 -2 0 -1
470 53 1 1.1 7.666719763173486 14.505593388834114 4.984537686234733 1 -1 1
719 80 2 -0.55 8.207406466583404 13.514944694884502 6.115071525844802 0 0 0
517 58 2 -0.55 11.296267651858107 14.816849442264425 5.461984464039031 0 1 1
593 66 2 -0.55 10.129806056410812 17.06495272982243 5.722988448189736 -1 -2 0
408 46 1 1.1 10.968600551758216 17.848323615500572 6.845946205218652 0 -1 0
401 45 2 -0.55 11.835177966895143 14.172927108772509 7.93400354808122 1 -2 1
207 23 2 -0.55 11.834401502921565 16.710412137238258 7.63988366308674 -1 0 -1
506 57 1 1.1 12.022310275562791 15.51762968638078 8.75524379250006 0 -1 1
326 37 1 1.1 11.74348608293973 13.629464037280325 6.4307674407601905 0 1 0
381 43 1 1.1 7.608659352870761 16.749924185924982 9.44454610372684 0 -1 0
221 25 2 -0.55 10.850566514619235 15.587986587400271 9.886312454410746 1 -1 0
166 19 2 -0.55 8.675280956828075 17.81425234721333 10.045563644908238 1 1 0
404 45 2 -0.55 8.152060213898466 15.317496486172907 9.874702026745142 1 -2 0
378 42 2 -0.55 14.463785829924351 1.7191655460725237 6.887157122615481 0 -2 0
638 71 2 -0.55 13.262989208167602 13.368008724206712 6.016093830207818 -1 -2 1
586 66 1 1.1 18.231220078487166 15.271445967929905 4.838652550079044 0 1 0
174 20 1 1.1 15.709167096193132 16.796266159152125 4.900608222861998 1 -1 0
471 53 1 1.1 15.845200195507488 18.31763820756009 7.377262413497492 -1 -1 0
132 15 2 -0.55 13.574090900447334 15.77223136944745 9.33659536889847 1 0 0
267 30 2 -0.55 15.55246115502857 17.367338019694046 8.699345096668957 1 -2 0
314 35 2 -0.55 15.590331842657015 14.009918223578063 6.915031457446231 1 0 0
73 9 1 1.1 14.64031328775833 14.11006625350799 5.639212743476413 1 -1 1
439 49 2 -0.55 14.520773110067097 15.744271323882051 5.403698729165718 0 -1 0
127 15 1 1.1 17.134324903047528 14.07265937308973 7.444728129814637 1 0 0
646 72 2 -0.55 17.89880660753198 14.985920181822959 6.404852778934927 0 -1 0
289 33 1 1.1 14.413233938742614 16.992903915857305 9.817095398714464 0 0 1
106 12 2 -0.55 17.25990183442226 14.621724168010546 8.923202783665586 -1 0 0
626 70 2 -0.55 16.37759876996771 17.4161572220934 6.1915166417240535 -1 -1 2
590 66 2 -0.55 13.393237646638001 18.191757160294507 10.12239539364405 0 -1 1
282 32 1 1.1 17.87773026411111 14.168812907329514 10.326089316212162 -1 0 -1
296 33 2 -0.55 22.075817700200812 13.17332276053256 6.53655349627627 -1 0 -1
85 10 2 -0.55 0.9938598177629759 14.425050753205905 9.444939898277292 1 0 0
383 43 2 -0.55 23.786823484649922 17.181636467362047 4.726739320381201 -3 0 0
122 14 2 -0.55 19.06495752325879 18.770629459491804 8.96502072105023 -1 0 0
301 34 2 -0.55 22.060838832540103 15.484160008017655 5.288450406833084 0 0 0
110 13 1 1.1 22.306653772828188 17.042403857050957 5.286155095295438 0 0 -1
654 73 2 -0.55 22.219196148484958 17.512764161782165 6.763925763032686 0 1 1
28 4 1 1.1 24.33011041921601 15.333015089963984 8.226737513070475 0 0 0
208 24 1 1.1 22.97465571468346 14.17540251355602 5.685169178086352 1 -2 0
360 40 2 -0.55 22.87537854979397 15.832798439762588 8.66454513517948 -1 -2 1
527 59 2 -0.55 24.122901482225142 14.645474689360608 6.741147820032222 -2 -1 1
334 38 1 1.1 21.712448662441677 16.803618941408068 8.186943127235004 0 -1 1
546 61 2 -0.55 20.321749619493552 16.07680664737798 7.918847351129601 0 0 0
294 33 2 -0.55 21.625254590685973 17.96538275527379 9.301124614321715 0 -1 -1
38 5 1 1.1 2.039252070179386 2.6592183925952346 10.176789261366647 1 0 0
230 26 2 -0.55 2.8780523911844873 6.618095975067402 10.531904065703774 0 -2 0
91 11 1 1.1 4.181160381566474 6.291917996852229 11.464464364192246 0 -1 -1
717 80 2 -0.55 3.5209279944103313 2.467169138604457 10.78763486047407 2 2 1
134 15 2 -0.55 4.890399558198961 4.93005192269816 11.08111439996509 0 0 -1
165 19 1 1.1 6.283464861736597 4.0965737232942825 11.082202552162222 1 2 0
396 44 2 -0.55 5.926934980379885 2.6711694264871833 11.781370019697235 0 0 0
602 67 2 -0.55 3.0665655507760454 2.4495146286283678 15.807211640351637 -1 0 1
502 56 2 -0.55 2.530607300500706 4.834506485569864 14.732798205773033 1 2 -1
533 60 1 1.1 2.6512208389467484 6.3715164688949235 14.214845917152077 2 0 0
54 6 2 -0.55 3.6432509477680446 6.300793361041032 12.95453681024788 -1 -1 0
78 9 2 -0.55 3.8228728505331317 2.3595293567252638 13.363740677942232 0 1 0
266 30 2 -0.55 6.080545851269476 5.074986224131751 14.494433655125363 1 -1 0
245 28 1 1.1 4.489457035147197 2.002405208640806 11.95662839131222 0 1 -1
652 73 2 -0.55 1.1604736636219297 6.838310841147814 14.003480402388238 -1 -1 0
192 22 1 1.1 5.716863319618139 5.40810906611587 16.0376557487296 0 0 0
413 46 2 -0.55 1.0539355386367582 2.900347859472789 11.46166887030059 0 0 0
606 68 1 1.1 2.8830668912327786 4.022086147881436 16.1050661330558 0 0 0
275 31 2 -0.55 7.249857161002832 4.9401126351584 12.025436228479949 -1 1 0
538 60 2 -0.55 10.616651635597314 5.201470658005 11.032059360105727 0 -1 -1
415 47 1 1.1 10.63078043505008 6.824820506408963 11.156786186602881 -1 -1 2
114 13 2 -0.55 8.784220331206443 4.981440136812111 14.186258181275011 0 -1 0
300 34 1 1.1 7.366246676852527 5.350063558262632 13.54486653041214 0 0 1
21 3 1 1.1 9.835011344412322 5.564898988964263 15.280112876958574 0 0 1
536 60 2 -0.55 11.433052992999281 5.294279000036706 15.073163272770808 -1 2 0
698 78 2 -0.55 7.4585389686225145 7.023770749217834 13.61958518847634 0 1 0
604 68 1 1.1 12.336925553991993 4.191965047901706 15.746098007574242 0 0 1
305 34 2 -0.55 9.440600307752254 7.023288995440559 15.66904844944665 0 1 -1
333 37 2 -0.55 9.696067647828272 7.359275781632077 12.418135863581515 1 0 -1
609 68 2 -0.55 12.099333378630272 7.440838686540725 11.05729974947545 0 1 -1
475 53 2 -0.55 12.63427268475146 1.8180416124057415 12.49536494981367 0 -1 0
554 62 2 -0.55 11.576311034606373 2.7867485968286942 15.930714754478862 0 0 0
219 25 1 1.1 13.238593573110851 2.138347827836167 11.052206004886937 1 1 -1
242 27 2 -0.55 13.760164357251417 5.647817324355992 12.464633457713498 -1 -1 1
672 75 2 -0.55 13.628984679165203 3.7678397837844324 14.87981858675625 0 0 1
188 21 2 -0.55 16.207799621604625 4.732746060506897 11.93209068049952 -1 0 0
262 30 1 1.1 15.311223530018074 5.6810524879392 12.80083034994889 1 0 0
369 41 2 -0.55 14.769134995279595 2.6018151244223002 11.279993217752939 0 -1 1
713 80 1 1.1 15.906618409838275 3.632415861903159 10.812968237320348 0 0 0
565 63 2 -0.55 18.18589784707366 4.876008267386597 13.952039247026708 0 -1 1
247 28 2 -0.55 15.652026336582137 6.36258206460474 14.168961253655832 -1 -1 -1
42 5 2 -0.55 16.137251945341774 3.3033969775354493 14.432287156701415 1 2 -1
352 40 1 1.1 14.825449712953821 2.6759526969391714 15.111727783004573 0 1 0
169 19 2 -0.55 18.36941933517751 3.194463553617976 15.83234920590949 0 0 0
280 32 1 1.1 17.802532706058546 3.388566260202736 14.327447525129278 0 0 0
105 12 2 -0.55 18.25998289319729 2.3231569812241597 13.212135979819 -1 0 -1