LAMMPS data file via write_data, version 29 Aug 2024, timestep = 10000, units = real

3392 atoms
7 atom types
3488 bonds
13 bond types
5376 angles
22 angle types
7552 dihedrals
36 dihedral types
1792 impropers
10 improper types

-2.316452861 13.210439682 xlo xhi
-26.159999999999997 26.159999999999997 ylo yhi
-26.159999999999997 26.159999999999997 zlo zhi

Atom Type Labels

1 cp
2 hc
3 c=1
4 c=
5 c1
6 c2
7 c3

Bond Type Labels

1 cp-cp
2 cp-hc
3 cp-c1
4 hc-c=1
5 c=1-c=
6 hc-c=
7 cp-c3
8 hc-c3
9 c3-c2
10 hc-c2
11 cp-c=1
12 hc-c1
13 c1-c2

Angle Type Labels

1 cp-cp-cp
2 cp-cp-hc
3 cp-cp-c1
4 cp-c1-hc
5 cp-c1-c2
6 hc-c=1-c=
7 hc-c=-c=1
8 hc-c=-hc
9 cp-cp-c3
10 cp-c3-hc
11 cp-c3-c2
12 hc-c3-c2
13 c3-c2-c1
14 hc-c2-c3
15 hc-c2-hc
16 c1-c2-c1
17 cp-cp-c=1
18 cp-c=1-hc
19 cp-c=1-c=
20 hc-c2-c1
21 hc-c1-c2
22 c2-c1-c2

Dihedral Type Labels

1 cp-cp-cp-cp
2 hc-cp-cp-c1
3 cp-cp-cp-hc
4 cp-cp-cp-c1
5 hc-cp-cp-hc
6 cp-cp-c=1-hc
7 cp-cp-c=1-c=
8 cp-c=1-c=-hc
9 hc-c=1-c=-hc
10 hc-cp-cp-c3
11 cp-cp-cp-c3
12 cp-cp-c1-hc
13 cp-cp-c1-c2
14 cp-c1-c2-hc
15 hc-c1-c2-hc
16 c2-c1-c2-hc
17 cp-c1-c2-c1
18 hc-c1-c2-c1
19 c2-c1-c2-c1
20 hc-cp-cp-c=1
21 cp-cp-cp-c=1
22 cp-cp-c3-hc
23 cp-cp-c3-c2
24 cp-c3-c2-hc
25 cp-c3-c2-c1
26 hc-c3-c2-hc
27 hc-c3-c2-c1
28 c3-c2-c1-cp
29 c3-c2-c1-hc
30 c3-c2-c1-c2
31 hc-c2-c1-cp
32 hc-c2-c1-hc
33 hc-c2-c1-c2
34 c1-c2-c1-cp
35 c1-c2-c1-hc
36 c1-c2-c1-c2

Improper Type Labels

1 cp-cp-cp-cp
2 cp-cp-cp-hc
3 cp-cp-cp-c1
4 cp-c=1-hc-c=
5 hc-c=-hc-c=1
6 cp-cp-cp-c3
7 hc-c2-hc-c1
8 cp-c1-hc-c2
9 cp-cp-cp-c=1
10 cp-c3-hc-c2

Masses

1 12.0112
2 1.00797
3 12.0112
4 12.0112
5 12.0112
6 12.0112
7 12.0112

Pair Coeffs # lj/class2/coul/long

1 0.064 4.01
2 0.02 2.7
3 0.064 4.01
4 0.064 3.9
5 0.054 4.01
6 0.054 4.01
7 0.054 4.01

Bond Coeffs # class2

1 1.417 470.836 -627.618 1327.63
2 1.0982 372.825 -803.453 894.317
3 1.501 321.902 -521.821 572.163
4 1.0883 365.768 -725.54 781.662
5 1.34 543.99 -1238.2 1644.03
6 1.0883 365.768 -725.54 781.662
7 1.501 321.902 -521.821 572.163
8 1.101 345 -691.89 844.6
9 1.53 299.67 -501.77 679.81
10 1.101 345 -691.89 844.6
11 1.501 321.902 -521.821 572.163
12 1.101 345 -691.89 844.6
13 1.53 299.67 -501.77 679.81

Angle Coeffs # class2

1 118.9 61.0226 -34.9931 0
2 117.94 35.1558 -12.4682 0
3 120.05 44.7148 -22.7352 0
4 111 44.3234 -9.4454 0
5 108.4 43.9594 -8.3924 -9.3379
6 124.88 35.2766 -17.774 -1.6215
7 124.88 35.2766 -17.774 -1.6215
8 115.49 29.6363 -12.4853 -6.2218
9 120.05 44.7148 -22.7352 0
10 111 44.3234 -9.4454 0
11 108.4 43.9594 -8.3924 -9.3379
12 110.77 41.453 -10.604 5.129
13 112.67 39.516 -7.443 -9.5583
14 110.77 41.453 -10.604 5.129
15 107.66 39.641 -12.921 -2.4318
16 112.67 39.516 -7.443 -9.5583
17 120.05 44.7148 -22.7352 0
18 111 44.3234 -9.4454 0
19 108.4 43.9594 -8.3924 -9.3379
20 110.77 41.453 -10.604 5.129
21 110.77 41.453 -10.604 5.129
22 112.67 39.516 -7.443 -9.5583

BondBond Coeffs

1 68.2856 1.417 1.417
2 1.0795 1.417 1.0982
3 12.0676 1.417 1.501
4 2.9168 1.501 1.0883
5 0 1.501 1.34
6 10.1047 1.0883 1.34
7 10.1047 1.0883 1.34
8 4.8506 1.0883 1.0883
9 12.0676 1.417 1.501
10 2.9168 1.501 1.101
11 0 1.501 1.53
12 3.3872 1.101 1.53
13 0 1.53 1.53
14 3.3872 1.101 1.53
15 5.3316 1.101 1.101
16 0 1.53 1.53
17 12.0676 1.417 1.501
18 2.9168 1.501 1.101
19 0 1.501 1.53
20 3.3872 1.101 1.53
21 3.3872 1.101 1.53
22 0 1.53 1.53

BondAngle Coeffs

1 28.8708 28.8708 1.417 1.417
2 20.0033 24.2183 1.417 1.0982
3 31.0771 47.0579 1.417 1.501
4 26.4608 11.7717 1.501 1.0883
5 0 0 1.501 1.34
6 19.0592 23.3588 1.0883 1.34
7 19.0592 23.3588 1.0883 1.34
8 17.9795 17.9795 1.0883 1.0883
9 31.0771 47.0579 1.417 1.501
10 26.4608 11.7717 1.501 1.101
11 0 0 1.501 1.53
12 11.421 20.754 1.101 1.53
13 8.016 8.016 1.53 1.53
14 11.421 20.754 1.101 1.53
15 18.103 18.103 1.101 1.101
16 8.016 8.016 1.53 1.53
17 31.0771 47.0579 1.417 1.501
18 26.4608 11.7717 1.501 1.101
19 0 0 1.501 1.53
20 11.421 20.754 1.101 1.53
21 11.421 20.754 1.101 1.53
22 8.016 8.016 1.53 1.53

Dihedral Coeffs # class2

1 8.3667 0 1.1932 0 0 0
2 0 0 1.559 0 0 0
3 0 0 3.9661 0 0 0
4 0 0 4.4072 0 0 0
5 0 0 1.8769 0 0 0
6 0 0 0 0 0 0
7 0 0 0 0 0 0
8 0 0 0 0 0 0
9 0 0 4.8974 0 0 0
10 0 0 1.559 0 0 0
11 0 0 4.4072 0 0 0
12 -0.2801 0 -0.0678 0 -0.0122 0
13 -0.2802 0 -0.0678 0 -0.0122 0
14 -0.0228 0 0.028 0 -0.1863 0
15 -0.1432 0 0.0617 0 -0.1083 0
16 0 0 0.0316 0 -0.1681 0
17 0 0 0 0 0 0
18 0 0 0.0316 0 -0.1681 0
19 0 0 0.0514 0 -0.143 0
20 0 0 1.559 0 0 0
21 0 0 4.4072 0 0 0
22 -0.2801 0 -0.0678 0 -0.0122 0
23 -0.2802 0 -0.0678 0 -0.0122 0
24 -0.0228 0 0.028 0 -0.1863 0
25 0 0 0 0 0 0
26 -0.1432 0 0.0617 0 -0.1083 0
27 0 0 0.0316 0 -0.1681 0
28 0 0 0 0 0 0
29 0 0 0.0316 0 -0.1681 0
30 0 0 0.0514 0 -0.143 0
31 -0.0228 0 0.028 0 -0.1863 0
32 -0.1432 0 0.0617 0 -0.1083 0
33 0 0 0.0316 0 -0.1681 0
34 0 0 0 0 0 0
35 0 0 0.0316 0 -0.1681 0
36 0 0 0.0514 0 -0.143 0

AngleAngleTorsion Coeffs

1 0 118.9 118.9
2 4.4444 117.94 120.05
3 -4.8141 118.9 117.94
4 -14.4097 118.9 120.05
5 0.3598 117.94 117.94
6 0 120.05 111
7 0 120.05 108.4
8 0 108.4 124.88
9 -7.0058 124.88 124.88
10 4.4444 117.94 120.05
11 -14.4097 118.9 120.05
12 -5.8888 120.05 111
13 0 120.05 108.4
14 0 108.4 110.77
15 -12.564 110.77 110.77
16 -16.164 112.67 110.77
17 0 108.4 112.67
18 -16.164 110.77 112.67
19 -22.045 112.67 112.67
20 4.4444 117.94 120.05
21 -14.4097 118.9 120.05
22 -5.8888 120.05 111
23 0 120.05 108.4
24 0 108.4 110.77
25 0 108.4 112.67
26 -12.564 110.77 110.77
27 -16.164 110.77 112.67
28 0 112.67 108.4
29 -16.164 112.67 110.77
30 -22.045 112.67 112.67
31 0 110.77 108.4
32 -12.564 110.77 110.77
33 -16.164 110.77 112.67
34 0 112.67 108.4
35 -16.164 112.67 110.77
36 -22.045 112.67 112.67

EndBondTorsion Coeffs

1 -0.1185 6.3204 0 -0.1185 6.3204 0 1.417 1.417
2 0 -0.4879 0 0 -1.797 0 1.0982 1.501
3 0 -6.8958 0 0 -0.4669 0 1.417 1.0982
4 0 -0.6918 0 0 0.2421 0 1.417 1.501
5 0 -0.689 0 0 -0.689 0 1.0982 1.0982
6 0 0 0 0 0 0 1.417 1.0883
7 0 0 0 0 0 0 1.417 1.34
8 0 0 0 0 0 0 1.501 1.0883
9 0.7129 0.5161 0 0.7129 0.5161 0 1.0883 1.0883
10 0 -0.4879 0 0 -1.797 0 1.0982 1.501
11 0 -0.6918 0 0 0.2421 0 1.417 1.501
12 -0.5835 1.122 0.3978 1.3997 0.7756 0 1.417 1.101
13 0 0 0 0 0 0 1.417 1.53
14 0 0 0 0 0 0 1.501 1.101
15 0.213 0.312 0.0777 0.213 0.312 0.0777 1.101 1.101
16 0.2486 0.2422 -0.0925 0.0814 0.0591 0.2219 1.53 1.101
17 0 0 0 0 0 0 1.501 1.53
18 0.0814 0.0591 0.2219 0.2486 0.2422 -0.0925 1.101 1.53
19 -0.0732 0 0 -0.0732 0 0 1.53 1.53
20 0 -0.4879 0 0 -1.797 0 1.0982 1.501
21 0 -0.6918 0 0 0.2421 0 1.417 1.501
22 -0.5835 1.122 0.3978 1.3997 0.7756 0 1.417 1.101
23 0 0 0 0 0 0 1.417 1.53
24 0 0 0 0 0 0 1.501 1.101
25 0 0 0 0 0 0 1.501 1.53
26 0.213 0.312 0.0777 0.213 0.312 0.0777 1.101 1.101
27 0.0814 0.0591 0.2219 0.2486 0.2422 -0.0925 1.101 1.53
28 0 0 0 0 0 0 1.53 1.501
29 0.2486 0.2422 -0.0925 0.0814 0.0591 0.2219 1.53 1.101
30 -0.0732 0 0 -0.0732 0 0 1.53 1.53
31 0 0 0 0 0 0 1.101 1.501
32 0.213 0.312 0.0777 0.213 0.312 0.0777 1.101 1.101
33 0.0814 0.0591 0.2219 0.2486 0.2422 -0.0925 1.101 1.53
34 0 0 0 0 0 0 1.53 1.501
35 0.2486 0.2422 -0.0925 0.0814 0.0591 0.2219 1.53 1.101
36 -0.0732 0 0 -0.0732 0 0 1.53 1.53

MiddleBondTorsion Coeffs

1 27.5989 -2.312 0 1.417
2 0 3.9421 0 1.417
3 0 -1.1521 0 1.417
4 0 9.1792 0 1.417
5 0 4.8228 0 1.417
6 0 0 0 1.501
7 0 0 0 1.501
8 0 0 0 1.34
9 0.8558 6.3911 0 1.34
10 0 3.9421 0 1.417
11 0 9.1792 0 1.417
12 -5.5679 1.4083 0.301 1.501
13 0 0 0 1.501
14 0 0 0 1.53
15 -14.261 -0.5322 -0.4864 1.53
16 -14.879 -3.6581 -0.3138 1.53
17 0 0 0 1.53
18 -14.879 -3.6581 -0.3138 1.53
19 -17.787 -7.1877 0 1.53
20 0 3.9421 0 1.417
21 0 9.1792 0 1.417
22 -5.5679 1.4083 0.301 1.501
23 0 0 0 1.501
24 0 0 0 1.53
25 0 0 0 1.53
26 -14.261 -0.5322 -0.4864 1.53
27 -14.879 -3.6581 -0.3138 1.53
28 0 0 0 1.53
29 -14.879 -3.6581 -0.3138 1.53
30 -17.787 -7.1877 0 1.53
31 0 0 0 1.53
32 -14.261 -0.5322 -0.4864 1.53
33 -14.879 -3.6581 -0.3138 1.53
34 0 0 0 1.53
35 -14.879 -3.6581 -0.3138 1.53
36 -17.787 -7.1877 0 1.53

BondBond13 Coeffs

1 53 1.417 1.417
2 0.8743 1.0982 1.501
3 -6.2741 1.417 1.0982
4 2.5085 1.417 1.501
5 -1.7077 1.0982 1.0982
6 0 1.417 1.0883
7 0 1.417 1.34
8 0 1.501 1.0883
9 0 1.0883 1.0883
10 0.8743 1.0982 1.501
11 2.5085 1.417 1.501
12 -3.4826 1.417 1.101
13 0 1.417 1.53
14 0 1.501 1.101
15 0 1.101 1.101
16 0 1.53 1.101
17 0 1.501 1.53
18 0 1.101 1.53
19 0 1.53 1.53
20 0.8743 1.0982 1.501
21 2.5085 1.417 1.501
22 -3.4826 1.417 1.101
23 0 1.417 1.53
24 0 1.501 1.101
25 0 1.501 1.53
26 0 1.101 1.101
27 0 1.101 1.53
28 0 1.53 1.501
29 0 1.53 1.101
30 0 1.53 1.53
31 0 1.101 1.501
32 0 1.101 1.101
33 0 1.101 1.53
34 0 1.53 1.501
35 0 1.53 1.101
36 0 1.53 1.53

AngleTorsion Coeffs

1 1.9767 1.0239 0 1.9767 1.0239 0 118.9 118.9
2 0 3.4601 0 0 -0.1242 0 117.94 120.05
3 0 2.5014 0 0 2.7147 0 118.9 117.94
4 0 3.8987 0 0 -4.4683 0 118.9 120.05
5 0 2.4501 0 0 2.4501 0 117.94 117.94
6 0 0 0 0 0 0 120.05 111
7 0 0 0 0 0 0 120.05 108.4
8 0 0 0 0 0 0 108.4 124.88
9 -1.8911 3.254 0 -1.8911 3.254 0 124.88 124.88
10 0 3.4601 0 0 -0.1242 0 117.94 120.05
11 0 3.8987 0 0 -4.4683 0 118.9 120.05
12 0.2251 0.6548 0.1237 4.6266 0.1632 0.0461 120.05 111
13 0 0 0 0 0 0 120.05 108.4
14 0 0 0 0 0 0 108.4 110.77
15 -0.8085 0.5569 -0.2466 -0.8085 0.5569 -0.2466 110.77 110.77
16 -0.2454 0 -0.1136 0.3113 0.4516 -0.1988 112.67 110.77
17 0 0 0 0 0 0 108.4 112.67
18 0.3113 0.4516 -0.1988 -0.2454 0 -0.1136 110.77 112.67
19 0.3886 -0.3139 0.1389 0.3886 -0.3139 0.1389 112.67 112.67
20 0 3.4601 0 0 -0.1242 0 117.94 120.05
21 0 3.8987 0 0 -4.4683 0 118.9 120.05
22 0.2251 0.6548 0.1237 4.6266 0.1632 0.0461 120.05 111
23 0 0 0 0 0 0 120.05 108.4
24 0 0 0 0 0 0 108.4 110.77
25 0 0 0 0 0 0 108.4 112.67
26 -0.8085 0.5569 -0.2466 -0.8085 0.5569 -0.2466 110.77 110.77
27 0.3113 0.4516 -0.1988 -0.2454 0 -0.1136 110.77 112.67
28 0 0 0 0 0 0 112.67 108.4
29 -0.2454 0 -0.1136 0.3113 0.4516 -0.1988 112.67 110.77
30 0.3886 -0.3139 0.1389 0.3886 -0.3139 0.1389 112.67 112.67
31 0 0 0 0 0 0 110.77 108.4
32 -0.8085 0.5569 -0.2466 -0.8085 0.5569 -0.2466 110.77 110.77
33 0.3113 0.4516 -0.1988 -0.2454 0 -0.1136 110.77 112.67
34 0 0 0 0 0 0 112.67 108.4
35 -0.2454 0 -0.1136 0.3113 0.4516 -0.1988 112.67 110.77
36 0.3886 -0.3139 0.1389 0.3886 -0.3139 0.1389 112.67 112.67

Improper Coeffs # class2

1 0 0
2 4.8912 0
3 7.8153 0
4 0 0
5 2.8561 0
6 7.8153 0
7 0 0
8 0 0
9 7.8153 0
10 0 0

AngleAngle Coeffs

1 0 0 0 118.9 118.9 118.9
2 0 0 0 118.9 117.94 117.94
3 0 0 0 118.9 120.05 120.05
4 0 0 0 111 124.88 108.4
5 0 0 0 115.49 124.88 124.88
6 0 0 0 118.9 120.05 120.05
7 0 0 0 107.66 110.77 110.77
8 0 0 0 111 110.77 108.4
9 0 0 0 118.9 120.05 120.05
10 0 0 0 111 110.77 108.4

Atoms # full

2810 167 2 0.1288 3.26152366657148 -20.377418921622393 -22.495266362632766 0 0 0
3351 201 1 -0.1734 -0.22659903924521552 -21.083627180576656 -22.82231423893723 1 1 0
2758 164 2 0.1237 5.402193942175237 -21.90368770604846 -25.093016859636155 0 1 1
3353 201 1 -0.1134 0.1797728509870069 -21.806264120053626 -21.67855282394535 1 1 0
3354 201 2 0.1288 0.9663139027425798 -21.490084243027532 -20.950119791783646 1 1 0
3350 201 2 0.1237 -1.4605372316344702 -20.951874547157793 -24.61817348699214 1 1 0
3349 201 1 -0.129 -1.1149323191970595 -21.61784643623843 -23.737096668092462 1 1 0
2757 164 1 -0.129 4.377215345167044 -22.324754938199604 -25.036891147277853 0 1 1
2760 164 2 0.1403 4.59173050420265 -23.396547517687438 -23.15715839087743 0 1 1
1724 99 2 0.1403 4.6683857664898865 -26.108501280180015 -23.45795701103399 0 1 0
2764 164 2 0.1403 0.796357284641332 -23.9821327296127 -24.934476568059996 0 1 1
2753 164 1 -0.129 2.1674885642592923 -22.537972473860542 -25.946300740650035 0 1 1
2763 164 1 -0.1734 1.7698081327096231 -23.45042491345626 -24.96279711257985 0 1 1
2761 164 1 -0.1134 2.7317889459891402 -23.834294071649353 -24.022055608674197 0 1 1
2755 164 1 0.0266 3.430211731300007 -21.951495140434645 -25.97186943213051 0 1 1
2762 164 2 0.1288 2.4096137193555585 -24.291393624914264 -23.10332978741171 0 1 1
2759 164 1 -0.1734 3.9758278422769893 -23.14642366185867 -24.00595186852565 0 1 1
3355 201 1 -0.1734 -0.3089724638673286 -23.08614233111144 -21.530904109080076 1 1 0
3322 199 2 0.1288 4.116736715934444 -23.821560640424686 -21.05753165433057 0 1 0
3345 201 1 -0.129 -1.2247557382733874 -23.542313723362305 -22.434798856022482 1 1 0
3347 201 1 0.0266 -1.8103094630519525 -22.89550453533058 -23.492224670039892 1 1 0
3346 201 2 0.1237 -1.7085404956649075 -24.566138400923002 -22.18766079618021 1 1 0
2807 167 1 -0.1734 3.764469146410285 -20.44560674862968 -20.403528055866325 0 0 0
2808 167 2 0.1403 4.302088666710956 -21.48567093389444 -20.43710305528082 0 0 0
3356 201 2 0.1403 0.1139701817096721 -23.776611364573988 -20.821692843126026 1 1 0
3320 199 2 0.1403 2.6875699299381304 -25.856966548681655 -20.511704592484556 0 1 0
3014 180 2 0.1237 6.546144807442243 -20.383092269873572 -22.91020567710429 1 0 0
3013 180 1 -0.129 7.370154811542763 -20.870238492438325 -22.33434386267457 1 0 0
978 53 2 0.1237 8.571814029921317 -21.6910623130858 -25.637269606778116 -1 0 1
2032 118 2 0.0354 6.888513945857321 -25.870511845417937 -25.364555008540822 0 1 0
3360 201 2 0.0354 11.178853814157053 -22.36822269726192 -23.636950241862227 0 1 0
3358 201 4 -0.0696 11.440590774917863 -23.368236139840405 -23.96614106637143 0 1 0
3359 201 2 0.0354 10.582338743774459 -24.13299433428999 -24.086524024939774 0 1 0
2030 118 4 -0.0696 7.4597037217742495 -25.136485150104015 -25.96703024495348 0 1 0
3357 201 2 0.0516 13.048214130969123 -24.627048159441514 -24.65295199908375 0 1 0
3348 201 3 -0.0182 12.717312820474723 -23.609840702271285 -24.379774762947537 0 1 0
1516 86 2 0.1403 7.3288328692947795 -25.617548654339366 -22.775679440060983 0 1 1
3019 180 1 -0.1734 9.194757507062475 -22.2954803090145 -20.989975690763966 1 0 0
3015 180 1 -0.1734 7.5989097244126995 -22.177841346672295 -22.73089532437371 1 0 0
3017 180 1 -0.1134 8.538752836959928 -22.96262202364649 -22.01664544913758 1 0 0
3018 180 2 0.1288 8.736253996966958 -24.037118860793186 -22.192384811291827 1 0 0
3016 180 2 0.1403 7.082404239822856 -22.476491921464003 -23.66018957525292 1 0 0
2020 118 3 -0.0182 8.803540020820444 -25.12915122426775 -26.048216807398546 0 1 0
3009 180 1 -0.129 8.83658613394795 -20.996926925297913 -20.524861084027968 1 0 0
2812 167 2 0.1403 2.3010041422132774 -18.135909594899026 -22.361778497706997 0 0 0
2811 167 1 -0.1734 2.7004554166412595 -18.543584215803754 -21.460859970682783 0 0 0
2809 167 1 -0.1134 3.1915753719838618 -19.84890649994454 -21.54397352606771 0 0 0
344 13 2 0.1403 0.3089278416497159 -19.029355766626608 -25.51053108279207 0 1 1
345 13 1 -0.1134 2.4780175248244443 -18.861485656603442 -25.0706104080336 0 1 1
343 13 1 -0.1734 1.2615874192794418 -18.402656162258253 -25.647974710195925 0 1 1
346 13 2 0.1288 2.4794388804391945 -19.863822674753358 -24.590874670536266 0 1 1
3352 201 2 0.1403 0.2345892048267022 -20.123421283092597 -23.109293760037865 1 1 0
348 13 2 0.1403 4.507824431584786 -18.713179038880185 -24.882125136785348 0 1 1
347 13 1 -0.1734 3.6820178830247245 -18.19573485027022 -25.35661000998506 0 1 1
337 13 1 -0.129 3.6900269076986127 -17.01438072879146 -26.047501733583957 0 1 1
2742 163 2 0.1237 0.46404163573286916 -16.223307257993945 -22.66689346833174 0 0 0
1490 85 2 0.1237 -1.3128574165935323 -17.31621034924946 -24.350614358637664 -1 0 1
2744 163 2 0.1403 -1.2600305156322573 -16.15145689839128 -21.015270366969112 0 0 0
2743 163 1 -0.1734 -0.53143544223288 -15.27450858589147 -21.052078228865252 0 0 0
2750 163 4 -0.0696 3.64504362176596 -15.44610068346576 -22.10678759765503 0 0 0
2741 163 1 -0.129 0.4464987597055168 -15.388809550001463 -21.991271013799633 0 0 0
2740 163 3 -0.0182 2.8046893994142676 -14.689182203942101 -22.852220049654417 0 0 0
2749 163 2 0.0516 2.6811496928380487 -14.729187014272439 -23.95187022953165 0 0 0
2739 163 1 0.0266 1.5395382359977807 -14.536128733846587 -22.075385334983732 0 0 0
2751 163 2 0.0354 4.515713628212936 -16.033150252399146 -22.554753620126444 0 0 0
2752 163 2 0.0354 3.6866325068717574 -15.367566315028027 -21.08387009448257 0 0 0
3024 180 2 0.0354 5.501111946053457 -18.9804859384246 -21.545524282012476 1 0 0
3023 180 2 0.0354 6.075194814608978 -17.318417735449522 -21.214505658207223 1 0 0
3022 180 4 -0.0696 6.33667101487803 -18.399384551164978 -21.20160639291192 1 0 0
1489 85 1 -0.129 13.187034385230751 -17.095022066979915 -24.048201458339395 -2 0 1
1499 85 1 -0.1734 12.585721584207178 -18.045816538471165 -23.179623063867304 -2 0 1
1500 85 2 0.1403 13.164168755841697 -18.824967925705458 -22.653150650578965 -2 0 1
1497 85 1 -0.1134 11.275323917169246 -18.0119905339431 -22.832139528231934 -2 0 1
1495 85 1 -0.1734 10.534805631384726 -16.90054235451401 -23.26119861346199 -2 0 1
1498 85 2 0.1288 10.858339498090022 -18.898353525381438 -22.275337572789507 -2 0 1
1496 85 2 0.1403 9.42787514688453 -16.822000189179143 -22.973909834172346 -2 0 1
3012 180 3 -0.0182 7.556185711571355 -18.848653362381015 -20.95656548966556 1 0 0
3011 180 1 0.0266 7.9139738960032675 -20.267734953794346 -21.249322231375118 1 0 0
988 53 2 0.1403 9.80785511057667 -20.008208633498235 -24.500216174996087 -1 0 1
986 53 2 0.1288 10.920565605571706 -18.18031955212519 -25.953500487450874 -1 0 1
987 53 1 -0.1734 9.721542177479098 -20.03753002271847 -25.65556679742658 -1 0 1
1491 85 1 0.0266 12.39547471880138 -16.04351076208505 -24.477132447617425 -2 0 1
1493 85 1 -0.129 11.064334824877045 -15.92553749031874 -24.09503727281939 -2 0 1
1494 85 2 0.1237 10.505983541125572 -15.083542276794658 -24.50626557513106 -2 0 1
1492 85 3 -0.0182 12.763081987236863 -15.019590998608743 -25.583331796864233 -2 0 1
3021 180 2 0.0516 8.397033333131004 -18.217389456689133 -20.661952318868153 1 0 0
3064 183 2 0.1403 11.350257582342943 -15.778628731638337 -20.4877530285123 0 0 0
2737 163 1 -0.129 1.4290495137625154 -13.363573199886014 -21.21841280629082 0 0 0
2738 163 2 0.1237 2.2431424141185077 -12.5570785607273 -21.247149562216354 0 0 0
2909 173 2 0.0516 -0.06251270607490578 -10.484141247515524 -22.331674482602704 0 0 0
3331 200 1 0.0266 4.648724350914511 -10.620049915228496 -24.49964731168969 0 0 0
3342 200 4 -0.0696 2.734191546902501 -11.747961973657294 -25.355373944612808 0 0 0
3332 200 3 -0.0182 3.7501365711812067 -11.83561653317057 -24.458448646925227 0 0 0
3343 200 2 0.0354 1.6647541598672804 -11.856894389168398 -25.125137715904724 0 0 0
3341 200 2 0.0516 3.661341110597834 -12.20657694682975 -23.412337018275053 0 0 0
1502 85 4 -0.0696 -2.307049268006848 -13.896351596532023 -25.030259800340968 -1 0 1
1503 85 2 0.0354 -1.437187293044767 -13.349177892724613 -25.306095924968577 -1 0 1
2899 173 1 0.0266 -0.6977497136258426 -9.239659578567128 -24.070352742208307 0 0 0
3330 200 2 0.1237 3.366322667827789 -9.439045996598654 -23.286654834463953 0 0 0
3329 200 1 -0.129 4.31007430194 -9.455223590443875 -23.841214729671247 0 0 0
2910 173 4 -0.0696 -2.1757027487041185 -9.929875453837749 -22.37295370925678 0 0 0
2900 173 3 -0.0182 -0.8681581405424037 -9.831868852070711 -22.708372823201852 0 0 0
2897 173 1 -0.129 -1.6023932076991052 -9.398313434475122 -25.099874056348575 0 0 0
2747 163 1 -0.1734 0.3334683080405476 -13.128708583980687 -20.397439349007442 0 0 0
3334 200 2 0.1237 6.0582519580787615 -11.406319182679006 -25.92207357799576 0 0 0
1535 87 2 0.0354 5.902351248768417 -13.92042605630842 -22.904418677159086 0 0 0
3333 200 1 -0.129 5.748036492713482 -10.516818901811053 -25.351875345856733 0 0 0
1534 87 4 -0.0696 6.29805520522176 -13.111009093351905 -22.28778858813743 0 0 0
1536 87 2 0.0354 5.504374206013311 -12.497760544698652 -21.83717883417749 0 0 0
3244 194 2 0.1403 5.7798215290157176 -13.401420589551291 -25.832485327154036 1 0 1
1306 73 2 0.1288 10.036107583082833 -12.944529620494011 -24.858834711693355 -1 0 0
1305 73 1 -0.1134 10.032891370210358 -12.084263926672408 -25.553692712670426 -1 0 0
1303 73 1 -0.1734 10.371152100752441 -10.824244154182868 -25.092981188534505 -1 0 0
1304 73 2 0.1403 10.597845311878741 -10.6583512867967 -23.997730690940166 -1 0 0
2911 173 2 0.0354 13.086057974092443 -10.6932732734253 -21.578276488860542 -1 0 0
1533 87 2 0.0516 8.30420193439169 -13.261444798306515 -22.979395735517475 0 0 0
1524 87 3 -0.0182 7.609240532081284 -12.770891008688176 -22.28517824921115 0 0 0
1523 87 1 0.0266 8.087483383545983 -11.47160955326266 -21.709335650843613 0 0 0
1504 85 2 0.0354 12.652187233149846 -13.462201838335554 -24.233545838099726 -2 0 1
1522 87 2 0.1237 8.351609083538653 -10.679420002689048 -23.70038898268536 0 0 0
1521 87 1 -0.129 8.42674832277319 -10.476315347486224 -22.636816469903074 0 0 0
3335 200 1 -0.1734 6.465142479234616 -9.385985615922557 -25.586910394929678 0 0 0
3336 200 2 0.1403 7.439567736043163 -9.58375396799085 -26.15924288905609 0 0 0
1301 73 1 -0.129 10.534126050298186 -9.802290809050067 -25.970111146580575 -1 0 0
2912 173 2 0.0354 12.593134208353245 -9.191911497852297 -22.57763027657998 -1 0 0
1302 73 2 0.1237 10.895369837309678 -8.820260695277476 -25.708091109728844 -1 0 0
1531 87 1 -0.1734 9.03233390346196 -9.29056583033817 -22.18646318684142 0 0 0
2898 173 2 0.1237 13.032496721189501 -10.108696153521345 -24.980351453905534 -1 0 0
1525 87 1 -0.129 8.337188106563989 -11.268779568192985 -20.360567558605563 0 0 0
1529 87 1 -0.1134 9.335378925844202 -9.10064213697664 -20.783279062445352 0 0 0
3339 200 1 -0.1734 5.062663851048372 -8.279149017489067 -23.931699039199305 0 0 0
2890 172 2 0.1288 2.2542678376593237 -5.967524091993994 -21.687442021954638 1 0 0
2902 173 2 0.1237 0.8755963265141115 -8.151558500886205 -23.329208026979014 0 0 0
2901 173 1 -0.129 0.3835053155185031 -8.422822930023523 -24.270419072425156 0 0 0
2903 173 1 -0.1734 0.5845636534361522 -7.677845226367436 -25.42143330682494 0 0 0
3340 200 2 0.1403 4.654844815275189 -7.365063561897827 -23.450267356464085 0 0 0
2904 173 2 0.1403 1.2792933314455772 -6.831327783090057 -25.421482841449233 0 0 0
2892 172 2 0.1403 2.81374057751795 -8.27761144101675 -21.01367563549623 1 0 0
2034 119 2 0.1237 -2.31595940737383 -6.6194480509073355 -24.152782308893446 1 0 0
2044 119 2 0.1403 -1.38046261394976 -6.2717300096137585 -21.8136155645734 1 0 0
2839 169 1 -0.1734 2.674641839184039 -4.148143105587641 -26.017273560364977 0 0 0
2841 169 1 -0.1134 2.663779305598859 -3.301463385323089 -24.88953578054015 0 0 0
2835 169 1 0.0266 5.147127284860648 -4.10345559499093 -26.039003333318714 0 0 0
2842 169 2 0.1288 1.6847105362747197 -2.983240503788558 -24.507845332026235 0 0 0
2843 169 1 -0.1734 3.8829508649297653 -2.9845755744372626 -24.267263900686842 0 0 0
2833 169 1 -0.129 5.064766730540421 -3.325444507709144 -24.86790284447765 0 0 0
687 34 2 0.0354 -1.5646057900935038 -3.8100785023385733 -25.26681344157355 1 0 0
2887 172 1 -0.1734 0.4901093151061797 -5.952163611502122 -20.428081248475454 1 0 0
2888 172 2 0.1403 0.026051814540388518 -5.00469266158869 -20.7544364227651 1 0 0
2889 172 1 -0.1134 1.6593825924621297 -6.446004630338283 -20.93815753005803 1 0 0
2891 172 1 -0.1734 1.961975131922823 -7.7386105400829575 -20.558910101085576 1 0 0
3337 200 1 -0.1134 6.208730037071812 -8.273055677166525 -24.755293947023446 0 0 0
3338 200 2 0.1288 6.7101711045396755 -7.290660657509649 -24.90030589783577 0 0 0
2845 169 2 0.0516 7.155330414493521 -4.811063899898365 -25.660438865258 0 0 0
2036 119 3 -0.0182 10.691261621264644 -6.161469825978095 -24.99856289523222 0 0 0
2046 119 4 -0.0696 11.105719486165576 -5.4058731543761045 -26.012618849197473 0 0 0
2035 119 1 0.0266 11.260348969859969 -5.919351554950133 -23.606514955476214 0 0 0
2033 119 1 -0.129 12.587358702549938 -6.28972244164741 -23.369111707733428 0 0 0
2045 119 2 0.0516 9.65495214193147 -6.181452168511425 -24.834146610539193 0 0 0
1532 87 2 0.1403 9.391486181712963 -8.492600593098791 -22.871205238509603 0 0 0
2037 119 1 -0.129 10.56754312621499 -5.154927848787123 -22.65543265503556 0 0 0
2038 119 2 0.1237 9.64640669907268 -4.676919939812585 -22.872675894446257 0 0 0
2039 119 1 -0.1734 11.09432768981493 -4.875362751920042 -21.393540143121278 0 0 0
2043 119 1 -0.1734 13.127160579053704 -5.9647103124153205 -22.10585347374893 0 0 0
2041 119 1 -0.1134 12.430816641376335 -5.237494544939384 -21.139330571669348 0 0 0
2834 169 2 0.1237 6.0970394302891195 -3.150747128720952 -24.440012342533674 0 0 0
1900 110 2 0.1403 7.427158810525388 -4.493524771409566 -21.74860284107122 -1 0 0
1899 110 1 -0.1734 6.737357694649281 -4.69755379488174 -20.90251235284692 -1 0 0
1898 110 2 0.1288 7.815483911020859 -6.493745865292439 -20.671037101839755 -1 0 0
1530 87 2 0.1288 9.824024314743557 -8.202077190653627 -20.441324476321338 0 0 0
1890 110 2 0.1237 5.462819396784678 -2.9719477060912958 -20.959304573630565 -1 0 0
1889 110 1 -0.129 5.6571665161223885 -3.932137835389426 -20.46065038340614 -1 0 0
2040 119 2 0.1403 10.60979951562935 -4.313775123215093 -20.602466942842632 0 0 0
1567 89 2 0.0354 2.000087546344691 -0.6069891516353261 -23.93201463632344 0 0 0
1566 89 4 -0.0696 2.4143530980167065 -0.07424948834486944 -23.051016246899035 0 0 0
1568 89 2 0.0354 3.412330692865099 0.3373831669662066 -23.18943932108377 0 0 0
685 34 2 0.0516 -0.049478231272675366 -2.438574969066053 -23.609162712973077 1 0 0
1556 89 3 -0.0182 1.7391252341831613 0.022245444617151833 -21.864955658283876 0 0 0
2844 169 2 0.1403 3.7936143389721755 -2.4390614032820697 -23.30026236757657 0 0 0
1565 89 2 0.0516 0.8209402427396361 -0.4710841383302995 -21.764429485041475 0 0 0
678 34 2 0.1237 -0.5383093960793335 0.6140915995888454 -23.704418396580557 1 0 0
677 34 1 -0.129 -1.4511769675177693 0.20070566267565848 -23.14282482999359 1 0 0
686 34 4 -0.0696 -1.7037437221884595 -2.8381553122816827 -24.872927396286016 1 0 0
676 34 3 -0.0182 -0.9191059816866147 -2.0965892456872712 -24.07105673794414 1 0 0
675 34 1 0.0266 -1.7210623099735365 -1.1590721183054855 -23.20853371155674 1 0 0
1932 112 2 0.1403 -1.5296712268052985 0.7930328657209103 -25.702075394483202 0 0 0
680 34 2 0.1403 -2.296949987613214 2.257605205992528 -22.63515334857247 1 0 0
1555 89 1 0.0266 2.2073657350709923 0.9701047734600037 -20.778927880663655 0 0 0
1554 89 2 0.1237 4.001632889452986 -0.3174874741296341 -20.466033661306195 0 0 0
1558 89 2 0.1237 0.4848728946745482 2.4768329242426654 -20.746806471403886 0 0 0
806 42 2 0.1237 6.597469300031016 0.6055164499048971 -25.659995042512517 0 0 0
814 42 4 -0.0696 7.132995989869353 1.0507409050436731 -22.95874187563188 0 0 0
805 42 1 -0.129 7.336518802729216 -0.1546387232251467 -25.594754707587928 0 0 0
674 34 2 0.1237 12.33189026976156 -2.741198551881695 -22.62443883549585 0 0 0
673 34 1 -0.129 12.639549185476675 -1.6412566832082538 -22.581391818029584 0 0 0
683 34 1 -0.1734 11.833642313410335 -0.7479072983774566 -21.875108381025505 0 0 0
688 34 2 0.0354 12.982229985186127 -2.1953655355000263 -25.29649135578358 0 0 0
813 42 2 0.0516 7.869941954164273 -0.7372093176984604 -22.16282480964403 0 0 0
802 42 2 0.1237 9.440153248146592 -1.7353202292931327 -23.44210218575862 0 0 0
801 42 1 -0.129 8.982051388738514 -1.4776526084555135 -24.430161838713065 0 0 0
803 42 1 0.0266 7.942054417190279 -0.5425126291533502 -24.408602525050075 0 0 0
804 42 3 -0.0182 7.480615254572141 -0.20426558030163466 -23.012083575142075 0 0 0
812 42 2 0.1403 10.317170004318053 -2.7255992287597985 -25.558350321743124 0 0 0
811 42 1 -0.1734 9.433497778603646 -2.0068207048601883 -25.61556512564113 0 0 0
679 34 1 -0.1734 13.147350646258618 1.1143554501767232 -22.56222049645539 0 0 0
681 34 1 -0.1134 12.027757509474627 0.6211682838694816 -21.93859173495059 0 0 0
682 34 2 0.1288 11.361618581258707 1.2757835658292254 -21.36138209063491 0 0 0
684 34 2 0.1403 10.991914929961998 -1.1692433899691919 -21.36522717413803 0 0 0
816 42 2 0.0354 6.50337870572189 1.5998756211448004 -23.777322948781357 0 0 0
815 42 2 0.0354 7.172775442649171 1.680947156700161 -22.048135949292295 0 0 0
671 33 2 0.0354 10.291119192313245 2.2989916000908694 -24.590805942387373 -1 0 1
1228 68 2 0.1403 9.297090329354383 -0.3738550605196238 -20.678941033092848 -1 0 0
1593 91 1 -0.1134 1.5684048813501912 4.152446446387335 -24.627650450695235 -1 0 0
1591 91 1 -0.1734 2.1736295637816934 4.310182296938873 -25.88378847199742 -1 0 0
1594 91 2 0.1288 0.6883882831057586 3.4874470237945214 -24.368782771471533 -1 0 0
1586 91 2 0.1237 3.620086582534695 6.262144212480086 -22.957468382373786 -1 0 0
1585 91 1 -0.129 3.2948936842100887 5.607392045788962 -23.738842286628213 -1 0 0
1595 91 1 -0.1734 2.15784332503436 4.799150808634873 -23.555824471982078 -1 0 0
1596 91 2 0.1403 1.6398633929552109 5.008063352452784 -22.581885496981638 -1 0 0
1589 91 1 -0.129 3.4325300597150137 4.856932110130386 -26.050525962196392 -1 0 0
1587 91 1 0.0266 3.986526238553081 5.573496356038231 -24.952878772361245 -1 0 0
1588 91 3 -0.0182 5.3161808004183495 6.168561711399182 -25.23726134556349 -1 0 0
866 46 2 0.1237 0.7230269473421269 6.8453457857049385 -21.385544302990812 1 0 0
877 46 2 0.0516 -1.178818293286847 5.60027991553189 -22.571626945968124 1 0 0
868 46 3 -0.0182 -1.4035188540166974 6.485359276798514 -23.102806206393257 1 0 0
3160 189 2 0.1403 4.454557284134403 7.46149311404685 -21.15466593412752 1 0 0
865 46 1 -0.129 0.7676658657812034 7.565101874844954 -22.276243628986812 1 0 0
867 46 1 0.0266 -0.20990306536117087 7.403454277851912 -23.30989359107222 1 0 0
875 46 1 -0.1734 1.9162214453906026 8.365261786454093 -22.47017981625029 1 0 0
869 46 1 -0.129 -0.1001373645145407 8.259017377891386 -24.36347085283997 1 0 0
876 46 2 0.1403 2.7686006258603078 8.405614218131841 -21.70656651274796 1 0 0
1597 91 2 0.0516 5.313786297868233 7.285418981824359 -25.064764438847877 -1 0 0
870 46 2 0.1237 -0.8447101933902985 8.095523184166465 -25.148446169029135 1 0 0
1600 91 2 0.0354 6.232410742176649 4.289512252392299 -24.98141152534305 -1 0 0
1598 91 4 -0.0696 6.351583629181055 5.375901429593649 -24.95164048566525 -1 0 0
1052 57 2 0.1403 8.95393257774685 7.03275246392376 -22.863420492137585 0 0 1
662 33 2 0.1237 7.629769944965955 4.108248310515074 -22.84639773534454 -1 0 1
669 33 2 0.0516 11.450622411550704 4.00492434637712 -23.337398446119114 -1 0 1