LAMMPS data file via write_data, version 29 Aug 2024, timestep = 10000, units = real

3392 atoms
7 atom types
3488 bonds
13 bond types
5376 angles
22 angle types
7552 dihedrals
36 dihedral types
1792 impropers
10 improper types

-2.316452861 13.210439682 xlo xhi
-26.159999999999997 26.159999999999997 ylo yhi
-26.159999999999997 26.159999999999997 zlo zhi

Atom Type Labels

1 cp
2 hc
3 c=1
4 c=
5 c1
6 c2
7 c3

Bond Type Labels

1 cp-cp
2 cp-hc
3 cp-c1
4 hc-c=1
5 c=1-c=
6 hc-c=
7 cp-c3
8 hc-c3
9 c3-c2
10 hc-c2
11 cp-c=1
12 hc-c1
13 c1-c2

Angle Type Labels

1 cp-cp-cp
2 cp-cp-hc
3 cp-cp-c1
4 cp-c1-hc
5 cp-c1-c2
6 hc-c=1-c=
7 hc-c=-c=1
8 hc-c=-hc
9 cp-cp-c3
10 cp-c3-hc
11 cp-c3-c2
12 hc-c3-c2
13 c3-c2-c1
14 hc-c2-c3
15 hc-c2-hc
16 c1-c2-c1
17 cp-cp-c=1
18 cp-c=1-hc
19 cp-c=1-c=
20 hc-c2-c1
21 hc-c1-c2
22 c2-c1-c2

Dihedral Type Labels

1 cp-cp-cp-cp
2 hc-cp-cp-c1
3 cp-cp-cp-hc
4 cp-cp-cp-c1
5 hc-cp-cp-hc
6 cp-cp-c=1-hc
7 cp-cp-c=1-c=
8 cp-c=1-c=-hc
9 hc-c=1-c=-hc
10 hc-cp-cp-c3
11 cp-cp-cp-c3
12 cp-cp-c1-hc
13 cp-cp-c1-c2
14 cp-c1-c2-hc
15 hc-c1-c2-hc
16 c2-c1-c2-hc
17 cp-c1-c2-c1
18 hc-c1-c2-c1
19 c2-c1-c2-c1
20 hc-cp-cp-c=1
21 cp-cp-cp-c=1
22 cp-cp-c3-hc
23 cp-cp-c3-c2
24 cp-c3-c2-hc
25 cp-c3-c2-c1
26 hc-c3-c2-hc
27 hc-c3-c2-c1
28 c3-c2-c1-cp
29 c3-c2-c1-hc
30 c3-c2-c1-c2
31 hc-c2-c1-cp
32 hc-c2-c1-hc
33 hc-c2-c1-c2
34 c1-c2-c1-cp
35 c1-c2-c1-hc
36 c1-c2-c1-c2

Improper Type Labels

1 cp-cp-cp-cp
2 cp-cp-cp-hc
3 cp-cp-cp-c1
4 cp-c=1-hc-c=
5 hc-c=-hc-c=1
6 cp-cp-cp-c3
7 hc-c2-hc-c1
8 cp-c1-hc-c2
9 cp-cp-cp-c=1
10 cp-c3-hc-c2

Masses

1 12.0112
2 1.00797
3 12.0112
4 12.0112
5 12.0112
6 12.0112
7 12.0112

Pair Coeffs # lj/class2/coul/long/omp

1 0.064 4.01
2 0.02 2.7
3 0.064 4.01
4 0.064 3.9
5 0.054 4.01
6 0.054 4.01
7 0.054 4.01

Bond Coeffs # class2/omp

1 1.417 470.836 -627.618 1327.63
2 1.0982 372.825 -803.453 894.317
3 1.501 321.902 -521.821 572.163
4 1.0883 365.768 -725.54 781.662
5 1.34 543.99 -1238.2 1644.03
6 1.0883 365.768 -725.54 781.662
7 1.501 321.902 -521.821 572.163
8 1.101 345 -691.89 844.6
9 1.53 299.67 -501.77 679.81
10 1.101 345 -691.89 844.6
11 1.501 321.902 -521.821 572.163
12 1.101 345 -691.89 844.6
13 1.53 299.67 -501.77 679.81

Angle Coeffs # class2/omp

1 118.9 61.0226 -34.9931 0
2 117.94 35.1558 -12.4682 0
3 120.05 44.7148 -22.7352 0
4 111 44.3234 -9.4454 0
5 108.4 43.9594 -8.3924 -9.3379
6 124.88 35.2766 -17.774 -1.6215
7 124.88 35.2766 -17.774 -1.6215
8 115.49 29.6363 -12.4853 -6.2218
9 120.05 44.7148 -22.7352 0
10 111 44.3234 -9.4454 0
11 108.4 43.9594 -8.3924 -9.3379
12 110.77 41.453 -10.604 5.129
13 112.67 39.516 -7.443 -9.5583
14 110.77 41.453 -10.604 5.129
15 107.66 39.641 -12.921 -2.4318
16 112.67 39.516 -7.443 -9.5583
17 120.05 44.7148 -22.7352 0
18 111 44.3234 -9.4454 0
19 108.4 43.9594 -8.3924 -9.3379
20 110.77 41.453 -10.604 5.129
21 110.77 41.453 -10.604 5.129
22 112.67 39.516 -7.443 -9.5583

BondBond Coeffs

1 68.2856 1.417 1.417
2 1.0795 1.417 1.0982
3 12.0676 1.417 1.501
4 2.9168 1.501 1.0883
5 0 1.501 1.34
6 10.1047 1.0883 1.34
7 10.1047 1.0883 1.34
8 4.8506 1.0883 1.0883
9 12.0676 1.417 1.501
10 2.9168 1.501 1.101
11 0 1.501 1.53
12 3.3872 1.101 1.53
13 0 1.53 1.53
14 3.3872 1.101 1.53
15 5.3316 1.101 1.101
16 0 1.53 1.53
17 12.0676 1.417 1.501
18 2.9168 1.501 1.101
19 0 1.501 1.53
20 3.3872 1.101 1.53
21 3.3872 1.101 1.53
22 0 1.53 1.53

BondAngle Coeffs

1 28.8708 28.8708 1.417 1.417
2 20.0033 24.2183 1.417 1.0982
3 31.0771 47.0579 1.417 1.501
4 26.4608 11.7717 1.501 1.0883
5 0 0 1.501 1.34
6 19.0592 23.3588 1.0883 1.34
7 19.0592 23.3588 1.0883 1.34
8 17.9795 17.9795 1.0883 1.0883
9 31.0771 47.0579 1.417 1.501
10 26.4608 11.7717 1.501 1.101
11 0 0 1.501 1.53
12 11.421 20.754 1.101 1.53
13 8.016 8.016 1.53 1.53
14 11.421 20.754 1.101 1.53
15 18.103 18.103 1.101 1.101
16 8.016 8.016 1.53 1.53
17 31.0771 47.0579 1.417 1.501
18 26.4608 11.7717 1.501 1.101
19 0 0 1.501 1.53
20 11.421 20.754 1.101 1.53
21 11.421 20.754 1.101 1.53
22 8.016 8.016 1.53 1.53

Dihedral Coeffs # class2/omp

1 8.3667 0 1.1932 0 0 0
2 0 0 1.559 0 0 0
3 0 0 3.9661 0 0 0
4 0 0 4.4072 0 0 0
5 0 0 1.8769 0 0 0
6 0 0 0 0 0 0
7 0 0 0 0 0 0
8 0 0 0 0 0 0
9 0 0 4.8974 0 0 0
10 0 0 1.559 0 0 0
11 0 0 4.4072 0 0 0
12 -0.2801 0 -0.0678 0 -0.0122 0
13 -0.2802 0 -0.0678 0 -0.0122 0
14 -0.0228 0 0.028 0 -0.1863 0
15 -0.1432 0 0.0617 0 -0.1083 0
16 0 0 0.0316 0 -0.1681 0
17 0 0 0 0 0 0
18 0 0 0.0316 0 -0.1681 0
19 0 0 0.0514 0 -0.143 0
20 0 0 1.559 0 0 0
21 0 0 4.4072 0 0 0
22 -0.2801 0 -0.0678 0 -0.0122 0
23 -0.2802 0 -0.0678 0 -0.0122 0
24 -0.0228 0 0.028 0 -0.1863 0
25 0 0 0 0 0 0
26 -0.1432 0 0.0617 0 -0.1083 0
27 0 0 0.0316 0 -0.1681 0
28 0 0 0 0 0 0
29 0 0 0.0316 0 -0.1681 0
30 0 0 0.0514 0 -0.143 0
31 -0.0228 0 0.028 0 -0.1863 0
32 -0.1432 0 0.0617 0 -0.1083 0
33 0 0 0.0316 0 -0.1681 0
34 0 0 0 0 0 0
35 0 0 0.0316 0 -0.1681 0
36 0 0 0.0514 0 -0.143 0

AngleAngleTorsion Coeffs

1 0 118.9 118.9
2 4.4444 117.94 120.05
3 -4.8141 118.9 117.94
4 -14.4097 118.9 120.05
5 0.3598 117.94 117.94
6 0 120.05 111
7 0 120.05 108.4
8 0 108.4 124.88
9 -7.0058 124.88 124.88
10 4.4444 117.94 120.05
11 -14.4097 118.9 120.05
12 -5.8888 120.05 111
13 0 120.05 108.4
14 0 108.4 110.77
15 -12.564 110.77 110.77
16 -16.164 112.67 110.77
17 0 108.4 112.67
18 -16.164 110.77 112.67
19 -22.045 112.67 112.67
20 4.4444 117.94 120.05
21 -14.4097 118.9 120.05
22 -5.8888 120.05 111
23 0 120.05 108.4
24 0 108.4 110.77
25 0 108.4 112.67
26 -12.564 110.77 110.77
27 -16.164 110.77 112.67
28 0 112.67 108.4
29 -16.164 112.67 110.77
30 -22.045 112.67 112.67
31 0 110.77 108.4
32 -12.564 110.77 110.77
33 -16.164 110.77 112.67
34 0 112.67 108.4
35 -16.164 112.67 110.77
36 -22.045 112.67 112.67

EndBondTorsion Coeffs

1 -0.1185 6.3204 0 -0.1185 6.3204 0 1.417 1.417
2 0 -0.4879 0 0 -1.797 0 1.0982 1.501
3 0 -6.8958 0 0 -0.4669 0 1.417 1.0982
4 0 -0.6918 0 0 0.2421 0 1.417 1.501
5 0 -0.689 0 0 -0.689 0 1.0982 1.0982
6 0 0 0 0 0 0 1.417 1.0883
7 0 0 0 0 0 0 1.417 1.34
8 0 0 0 0 0 0 1.501 1.0883
9 0.7129 0.5161 0 0.7129 0.5161 0 1.0883 1.0883
10 0 -0.4879 0 0 -1.797 0 1.0982 1.501
11 0 -0.6918 0 0 0.2421 0 1.417 1.501
12 -0.5835 1.122 0.3978 1.3997 0.7756 0 1.417 1.101
13 0 0 0 0 0 0 1.417 1.53
14 0 0 0 0 0 0 1.501 1.101
15 0.213 0.312 0.0777 0.213 0.312 0.0777 1.101 1.101
16 0.2486 0.2422 -0.0925 0.0814 0.0591 0.2219 1.53 1.101
17 0 0 0 0 0 0 1.501 1.53
18 0.0814 0.0591 0.2219 0.2486 0.2422 -0.0925 1.101 1.53
19 -0.0732 0 0 -0.0732 0 0 1.53 1.53
20 0 -0.4879 0 0 -1.797 0 1.0982 1.501
21 0 -0.6918 0 0 0.2421 0 1.417 1.501
22 -0.5835 1.122 0.3978 1.3997 0.7756 0 1.417 1.101
23 0 0 0 0 0 0 1.417 1.53
24 0 0 0 0 0 0 1.501 1.101
25 0 0 0 0 0 0 1.501 1.53
26 0.213 0.312 0.0777 0.213 0.312 0.0777 1.101 1.101
27 0.0814 0.0591 0.2219 0.2486 0.2422 -0.0925 1.101 1.53
28 0 0 0 0 0 0 1.53 1.501
29 0.2486 0.2422 -0.0925 0.0814 0.0591 0.2219 1.53 1.101
30 -0.0732 0 0 -0.0732 0 0 1.53 1.53
31 0 0 0 0 0 0 1.101 1.501
32 0.213 0.312 0.0777 0.213 0.312 0.0777 1.101 1.101
33 0.0814 0.0591 0.2219 0.2486 0.2422 -0.0925 1.101 1.53
34 0 0 0 0 0 0 1.53 1.501
35 0.2486 0.2422 -0.0925 0.0814 0.0591 0.2219 1.53 1.101
36 -0.0732 0 0 -0.0732 0 0 1.53 1.53

MiddleBondTorsion Coeffs

1 27.5989 -2.312 0 1.417
2 0 3.9421 0 1.417
3 0 -1.1521 0 1.417
4 0 9.1792 0 1.417
5 0 4.8228 0 1.417
6 0 0 0 1.501
7 0 0 0 1.501
8 0 0 0 1.34
9 0.8558 6.3911 0 1.34
10 0 3.9421 0 1.417
11 0 9.1792 0 1.417
12 -5.5679 1.4083 0.301 1.501
13 0 0 0 1.501
14 0 0 0 1.53
15 -14.261 -0.5322 -0.4864 1.53
16 -14.879 -3.6581 -0.3138 1.53
17 0 0 0 1.53
18 -14.879 -3.6581 -0.3138 1.53
19 -17.787 -7.1877 0 1.53
20 0 3.9421 0 1.417
21 0 9.1792 0 1.417
22 -5.5679 1.4083 0.301 1.501
23 0 0 0 1.501
24 0 0 0 1.53
25 0 0 0 1.53
26 -14.261 -0.5322 -0.4864 1.53
27 -14.879 -3.6581 -0.3138 1.53
28 0 0 0 1.53
29 -14.879 -3.6581 -0.3138 1.53
30 -17.787 -7.1877 0 1.53
31 0 0 0 1.53
32 -14.261 -0.5322 -0.4864 1.53
33 -14.879 -3.6581 -0.3138 1.53
34 0 0 0 1.53
35 -14.879 -3.6581 -0.3138 1.53
36 -17.787 -7.1877 0 1.53

BondBond13 Coeffs

1 53 1.417 1.417
2 0.8743 1.0982 1.501
3 -6.2741 1.417 1.0982
4 2.5085 1.417 1.501
5 -1.7077 1.0982 1.0982
6 0 1.417 1.0883
7 0 1.417 1.34
8 0 1.501 1.0883
9 0 1.0883 1.0883
10 0.8743 1.0982 1.501
11 2.5085 1.417 1.501
12 -3.4826 1.417 1.101
13 0 1.417 1.53
14 0 1.501 1.101
15 0 1.101 1.101
16 0 1.53 1.101
17 0 1.501 1.53
18 0 1.101 1.53
19 0 1.53 1.53
20 0.8743 1.0982 1.501
21 2.5085 1.417 1.501
22 -3.4826 1.417 1.101
23 0 1.417 1.53
24 0 1.501 1.101
25 0 1.501 1.53
26 0 1.101 1.101
27 0 1.101 1.53
28 0 1.53 1.501
29 0 1.53 1.101
30 0 1.53 1.53
31 0 1.101 1.501
32 0 1.101 1.101
33 0 1.101 1.53
34 0 1.53 1.501
35 0 1.53 1.101
36 0 1.53 1.53

AngleTorsion Coeffs

1 1.9767 1.0239 0 1.9767 1.0239 0 118.9 118.9
2 0 3.4601 0 0 -0.1242 0 117.94 120.05
3 0 2.5014 0 0 2.7147 0 118.9 117.94
4 0 3.8987 0 0 -4.4683 0 118.9 120.05
5 0 2.4501 0 0 2.4501 0 117.94 117.94
6 0 0 0 0 0 0 120.05 111
7 0 0 0 0 0 0 120.05 108.4
8 0 0 0 0 0 0 108.4 124.88
9 -1.8911 3.254 0 -1.8911 3.254 0 124.88 124.88
10 0 3.4601 0 0 -0.1242 0 117.94 120.05
11 0 3.8987 0 0 -4.4683 0 118.9 120.05
12 0.2251 0.6548 0.1237 4.6266 0.1632 0.0461 120.05 111
13 0 0 0 0 0 0 120.05 108.4
14 0 0 0 0 0 0 108.4 110.77
15 -0.8085 0.5569 -0.2466 -0.8085 0.5569 -0.2466 110.77 110.77
16 -0.2454 0 -0.1136 0.3113 0.4516 -0.1988 112.67 110.77
17 0 0 0 0 0 0 108.4 112.67
18 0.3113 0.4516 -0.1988 -0.2454 0 -0.1136 110.77 112.67
19 0.3886 -0.3139 0.1389 0.3886 -0.3139 0.1389 112.67 112.67
20 0 3.4601 0 0 -0.1242 0 117.94 120.05
21 0 3.8987 0 0 -4.4683 0 118.9 120.05
22 0.2251 0.6548 0.1237 4.6266 0.1632 0.0461 120.05 111
23 0 0 0 0 0 0 120.05 108.4
24 0 0 0 0 0 0 108.4 110.77
25 0 0 0 0 0 0 108.4 112.67
26 -0.8085 0.5569 -0.2466 -0.8085 0.5569 -0.2466 110.77 110.77
27 0.3113 0.4516 -0.1988 -0.2454 0 -0.1136 110.77 112.67
28 0 0 0 0 0 0 112.67 108.4
29 -0.2454 0 -0.1136 0.3113 0.4516 -0.1988 112.67 110.77
30 0.3886 -0.3139 0.1389 0.3886 -0.3139 0.1389 112.67 112.67
31 0 0 0 0 0 0 110.77 108.4
32 -0.8085 0.5569 -0.2466 -0.8085 0.5569 -0.2466 110.77 110.77
33 0.3113 0.4516 -0.1988 -0.2454 0 -0.1136 110.77 112.67
34 0 0 0 0 0 0 112.67 108.4
35 -0.2454 0 -0.1136 0.3113 0.4516 -0.1988 112.67 110.77
36 0.3886 -0.3139 0.1389 0.3886 -0.3139 0.1389 112.67 112.67

Improper Coeffs # class2/omp

1 0 0
2 4.8912 0
3 7.8153 0
4 0 0
5 2.8561 0
6 7.8153 0
7 0 0
8 0 0
9 7.8153 0
10 0 0

AngleAngle Coeffs

1 0 0 0 118.9 118.9 118.9
2 0 0 0 118.9 117.94 117.94
3 0 0 0 118.9 120.05 120.05
4 0 0 0 111 124.88 108.4
5 0 0 0 115.49 124.88 124.88
6 0 0 0 118.9 120.05 120.05
7 0 0 0 107.66 110.77 110.77
8 0 0 0 111 110.77 108.4
9 0 0 0 118.9 120.05 120.05
10 0 0 0 111 110.77 108.4

Atoms # full

687 34 2 0.0354 0.32055175627651733 -24.81941882448963 -24.87751767198141 0 0 0
676 34 3 -0.0182 2.3989739660076603 -24.592369139938743 -24.530306227572286 0 0 0
686 34 4 -0.0696 1.2836810503206495 -25.245966511963484 -24.63515803307647 0 0 0
688 34 2 0.0354 1.287001442755199 26.025706344812104 -24.6676914214629 0 -1 0
685 34 2 0.0516 2.2944510675086502 -23.465959420833972 -24.629309155899065 0 0 0
675 34 1 0.0266 3.374140759803694 -24.88432175496043 -23.425260867931307 0 0 0
677 34 1 -0.129 4.664727710798674 -25.253197717655635 -23.811661496110382 0 0 0
678 34 2 0.1237 5.018159011952354 -25.44214370378848 -24.815262718877293 0 0 0
681 34 1 -0.1134 5.3045745965815465 -25.426341998091853 -21.522886079317946 0 0 0
679 34 1 -0.1734 5.613918543539376 -25.565123663400176 -22.901461663388385 0 0 0
572 27 2 0.1403 4.62716151189196 -22.763206938875133 -25.411987482849984 0 0 0
571 27 1 -0.1734 5.030073885982752 -21.781314878534726 -25.628607911157182 0 0 0
2911 173 2 0.0354 3.13661608914238 -20.371827560700318 -20.59448211290523 0 0 0
673 34 1 -0.129 3.0849236883985673 -24.76114170746486 -22.025255322234543 0 0 0
674 34 2 0.1237 2.1306933809433017 -24.32912841643155 -21.612287014188947 0 0 0
802 42 2 0.1237 -0.6408122485527978 -24.934939599594514 -18.977033290340575 1 0 0
812 42 2 0.1403 1.592555641388701 -24.063913638572938 -18.55280002906473 1 0 0
2910 173 4 -0.0696 2.422457455789621 -20.823672782374448 -21.355363695403508 0 0 0
2847 169 2 0.0354 11.545023355064508 22.573716464754714 -25.85366863527982 -1 -1 0
680 34 2 0.1403 6.598694991761691 -25.95163837285777 -23.134342388650552 0 0 0
562 27 2 0.1237 7.160551357511594 -22.381994157399507 -25.92913463742594 0 0 0
563 27 1 0.0266 7.001084096317557 -20.27576338136407 -25.9723744465916 0 0 0
574 27 4 -0.0696 9.299834834632323 -21.084036076323542 25.822575537854963 0 0 -1
564 27 3 -0.0182 8.547167171394713 -20.048822179871042 -26.002456458000964 0 0 0
576 27 2 0.0354 9.238291910929892 -22.07108275189997 -26.11077795194113 0 0 0
575 27 2 0.0354 10.161174673906418 -20.972597363677075 25.218400643247712 0 0 -1
573 27 2 0.0516 8.664839717950697 -19.02311465949062 25.97810779399886 0 0 -1
561 27 1 -0.129 6.418424893565031 -21.56363800439467 -25.922035219331004 0 0 0
992 53 2 0.0354 11.158156844748667 25.838075627737286 -25.21081901855189 0 -1 1
990 53 4 -0.0696 11.518194405882936 -25.47063887345364 -24.986003604760352 0 0 1
991 53 2 0.0354 12.446337604535923 -25.0832742113282 -25.327372551302048 0 0 1
3224 193 2 0.1403 6.071635902230714 -20.364491517995116 -22.88143616112114 0 0 0
3223 193 1 -0.1734 6.92757974590341 -20.61022729147798 -22.28737177989568 0 0 0
980 53 3 -0.0182 10.621533862463558 -24.787217846620347 -24.263243418478872 0 0 1
3217 193 1 -0.129 9.100018997831558 -21.49789658785781 -20.915424310338427 0 0 0
3225 193 1 -0.1134 6.792189591629024 -21.796226651667528 -21.558582590297224 0 0 0
978 53 2 0.1237 11.381350052510735 -25.240796764790392 -21.709725593314946 0 0 1
977 53 1 -0.129 10.526151738731045 -25.836129098670863 -21.980927494247606 0 0 1
987 53 1 -0.1734 9.926761355672292 25.69949862547238 -21.004491182887847 0 -1 1
1923 112 1 0.0266 2.3066448447465846 -16.88458161689129 -23.66427195308714 0 0 0
1922 112 2 0.1237 3.222712095099226 -18.870950496056658 -23.312661367594362 0 0 0
1921 112 1 -0.129 3.2507670255359744 -17.74969565351263 -23.113251965114152 0 0 0
1931 112 1 -0.1734 4.270425013880985 -17.313233298852452 -22.321412966243777 0 0 0
1932 112 2 0.1403 5.010269682024485 -17.97479990286763 -21.727328793204784 0 0 0
570 27 2 0.1288 3.124086402282603 -20.84770936460768 -25.237481734109043 0 0 0
1929 112 1 -0.1134 4.366364250303586 -15.948109473497032 -22.046086411386984 0 0 0
1927 112 1 -0.1734 3.38137583476909 -15.035130773708664 -22.4920822768934 0 0 0
1930 112 2 0.1288 5.258518902731193 -15.662458433663305 -21.484742735566947 0 0 0
1928 112 2 0.1403 3.3703054310004186 -14.033817989636754 -22.104975017326087 0 0 0
1936 112 2 0.0354 1.0657189249529913 -15.925040595055991 -25.844664129754324 0 0 0
2908 173 2 0.1403 -0.5559608791075131 -20.629587226500398 -25.32705356601966 0 0 0
2898 173 2 0.1237 0.772853964564143 -19.979522493937893 -23.474310050888203 0 0 0
569 27 1 -0.1134 4.228274853723086 -20.646376510625128 -25.440582484712927 0 0 0
1054 57 4 -0.0696 12.962725728048623 -17.737764019783114 -25.969295988626246 0 0 1
1056 57 2 0.0354 13.013818431389693 -18.60141417232049 -25.353515994467685 0 0 1
2900 173 3 -0.0182 1.1685029935524127 -21.0394312444677 -21.065902061532086 0 0 0
2903 173 1 -0.1734 -1.0494621634345678 -23.337448675861708 -23.328566410404335 0 0 0
2899 173 1 0.0266 0.40860627841398883 -21.76203974041627 -22.1768730531724 0 0 0
2912 173 2 0.0354 2.8942721489807544 -20.838415464203585 -22.32829412582446 0 0 0
2905 173 1 -0.1134 -1.1191422317342568 -22.515174104012097 -24.43555130271655 0 0 0
2907 173 1 -0.1734 -0.4516268368967964 -21.355675227782367 -24.47527689292324 0 0 0
2897 173 1 -0.129 0.3197777805293115 -20.995022512685782 -23.369741241717854 0 0 0
2906 173 2 0.1288 -1.6463925832046353 -22.878128078492317 -25.385523926917475 0 0 0
565 27 1 -0.129 6.155169778399733 -19.215585112709405 -25.779925937153827 0 0 0
566 27 2 0.1237 6.544556585518925 -18.1553545788378 -25.78713350750927 0 0 0
3221 193 1 -0.129 8.0922014405623 -19.858601668611332 -22.271598077209436 0 0 0
568 27 2 0.1403 4.176015527782555 -18.51905013402984 -25.240833604974338 0 0 0
1652 95 3 -0.0182 13.141874459480546 -14.403335859065653 -22.811947842510005 1 0 1
567 27 1 -0.1734 4.789980418719014 -19.40027291991817 -25.569209406844397 0 0 0
1055 57 2 0.0354 12.806590457876819 -16.799541210974496 -25.488524786250462 0 0 1
1044 57 3 -0.0182 12.868703348158055 -18.011252833339874 25.007695213158954 0 0 0
3232 193 2 0.0354 10.697320516394031 -20.99606807062642 -23.588446206728154 0 0 0
3231 193 2 0.0354 10.903541888718818 -19.203917308793365 -23.836597961832968 0 0 0
671 33 2 0.0354 7.544998862246218 -15.265304971823323 -21.51404233203513 0 0 1
670 33 4 -0.0696 8.039196322916574 -14.62780278774341 -22.263727262845542 0 0 1
672 33 2 0.0354 7.2850214806205145 -14.031377391407293 -22.845918333259135 0 0 1
3222 193 2 0.1237 8.201072675114663 -18.995579753538852 -23.02482143918563 0 0 0
3230 193 4 -0.0696 10.857838337592662 -19.975952091328 -23.133468076518707 0 0 0
1053 57 2 0.0516 12.739762034034854 -17.30823159781473 24.240341844124657 0 0 0
1662 95 4 -0.0696 -1.8949359066574845 -13.962586858551461 -23.984554482359247 2 0 1
1664 95 2 0.0354 -1.9157839774854624 -14.638073863380159 -24.86105174880413 2 0 1
1663 95 2 0.0354 -1.6844711011587556 -12.972803542618458 -24.27759710415754 2 0 1
3218 193 2 0.1237 9.971522919792983 -22.010255407508843 -20.42215627140518 0 0 0
3219 193 1 0.0266 9.197597980286277 -20.26685710774311 -21.568798348446304 0 0 0
3220 193 3 -0.0182 10.545595504215687 -19.62940350046151 -21.8513256081473 0 0 0
3229 193 2 0.0516 10.578362934090793 -18.625244014978293 -21.420386627641697 0 0 0
662 33 2 0.1237 9.130435733845639 -16.60903963673416 -24.10410866234182 0 0 1
1934 112 4 -0.0696 0.5288407398891525 -16.516720707366517 -25.16419171037564 0 0 0
1925 112 1 -0.129 2.359596081510891 -15.533707081870512 -23.29950417152312 0 0 0
1926 112 2 0.1237 1.6361977187466255 -14.655158306380265 -23.58450805701415 0 0 0
1935 112 2 0.0354 -0.4723128876355747 -16.276678481248734 -25.046212142743705 0 0 0
1924 112 3 -0.0182 1.2110517073072056 -17.405776727659124 -24.48788424402408 0 0 0
1629 93 2 0.0516 7.751109089721103 -12.198447033083202 -25.651747485412127 0 0 1
3174 190 2 0.1237 3.8238483178400484 -14.372394942493198 -19.64011997594409 1 0 0
1933 112 2 0.0516 0.7230662363700147 -18.007127084312522 -23.821464311848366 0 0 0
2342 138 2 0.1237 0.3081909447819156 -8.386421809483002 26.144553945946363 0 0 0
1622 93 2 0.1237 4.71975078345843 -11.733035741209017 -24.772281242464732 0 0 1
3176 190 2 0.1403 1.5026127601501567 -13.761385474557068 -19.742375040976412 1 0 0
1654 95 2 0.1237 0.029748896115292908 -14.360091233456911 -21.47162156182465 2 0 1
2352 138 2 0.0354 12.81802208184109 -10.863971238836491 -24.484033430767578 -1 0 1
2339 138 1 0.0266 -1.0434385528324357 -8.904955679809788 -24.515877360066742 0 0 1
2338 138 2 0.1237 -2.095517538088361 -9.530328170608167 -22.77614931051856 0 0 1
1624 93 2 0.1403 3.780559948766226 -11.310453021122598 -22.604124197647916 0 0 1
3175 190 1 -0.1734 2.207213220067601 -13.037285548208587 -19.34579276186429 1 0 0
298 10 2 0.1288 0.8881298539788055 -12.216861056842525 25.536177218160244 1 0 0
1661 95 2 0.0516 12.932647845855815 -13.777295323236055 -21.920150293317235 1 0 1
660 33 3 -0.0182 9.351719938486733 -14.698658952405648 -22.50672857245311 0 0 1
1620 93 3 -0.0182 7.138730829408113 -11.364900361228509 -25.757292942290334 0 0 1
1619 93 1 0.0266 6.63226017218244 -10.970060689245257 -24.407737830906296 0 0 1
1621 93 1 -0.129 5.353637021117658 -11.284865343603485 -24.028802391026552 0 0 1
1623 93 1 -0.1734 4.847632228163371 -11.03253826769415 -22.716359858481724 0 0 1
2350 138 4 -0.0696 13.004580799667622 -10.368298900717122 -25.41340228249503 -1 0 1
2351 138 2 0.0354 12.812776342560896 -11.153377014752143 -26.141929117526985 -1 0 1
1617 93 1 -0.129 7.396786829651258 -10.305745133095842 -23.457051070689925 0 0 1
1618 93 2 0.1237 8.418006805606112 -10.139818324160881 -23.760614966532952 0 0 1
1627 93 1 -0.1734 6.945725434989353 -10.035253645793098 -22.19119110687024 0 0 1
657 33 1 -0.129 10.379406694114817 -13.48065007501022 -24.55985243505673 0 0 1
658 33 2 0.1237 10.58442244786913 -12.543270598228844 -24.109461736866177 0 0 1
659 33 1 0.0266 9.840817718073447 -14.615859220772158 -23.890203554146822 0 0 1
669 33 2 0.0516 9.989540128440899 -15.328100473168282 -21.915643103533277 0 0 1
1628 93 2 0.1403 7.663377020546995 -9.684971045548327 -21.449196720665636 0 0 1
1625 93 1 -0.1134 5.633370618536927 -10.241530441242062 -21.84257830993248 0 0 1
667 33 1 -0.1734 10.721672299576227 -13.639749346916435 -25.932940398606412 0 0 1
668 33 2 0.1403 11.224535160430154 -12.815894972710966 25.849323642896866 0 0 0
2340 138 3 -0.0182 -2.166703622116332 -9.106138885569164 -25.496214051594507 0 0 1
2349 138 2 0.0516 -1.9706029718742737 -8.710447567143278 25.832160513555937 0 0 0
1100 60 2 0.1403 11.214483857964094 -9.946340072714133 -21.4958532189626 0 0 0
1090 60 2 0.1237 -2.2270686098682613 -11.33843534902768 -20.602362915440366 1 0 0
661 33 1 -0.129 9.657109115347835 -15.794590405721436 -24.621347731008246 0 0 1
2341 138 1 -0.129 0.19225130767199666 -8.53119179506132 -25.056102194801117 0 0 1
2337 138 1 -0.129 -1.0807142192331392 -9.180722017239052 -23.110297739179448 0 0 1
2347 138 1 -0.1734 0.05042129882142769 -9.13945341554954 -22.285942194533153 0 0 1
2343 138 1 -0.1734 1.2824872726708594 -8.286702696485653 -24.177725794328655 0 0 1
2344 138 2 0.1403 2.2908396066656227 -8.076128638968955 -24.624546914431228 0 0 1
2346 138 2 0.1288 2.1364838222703875 -8.67803524686747 -22.302206240776915 0 0 1
2345 138 1 -0.1134 1.1687012413597968 -8.619572041996337 -22.81218305640588 0 0 1
1108 61 3 -0.0182 3.2851672417981894 -4.907343215922985 -22.950150689101545 0 0 1
1107 61 1 0.0266 3.978786089228126 -5.7468464091812725 -24.08642379798494 0 0 1
1119 61 2 0.0354 1.965299242812722 -5.676255238754167 -21.43157496729137 0 0 1
2348 138 2 0.1403 0.04707552442996926 -9.518935978583663 -21.266801480792886 0 0 1
247 7 1 -0.1734 -1.6217247325218762 -4.744980310217797 -23.73632134934793 0 0 0
248 7 2 0.1403 -1.6189567023222144 -5.148884496942489 -24.76251852384914 0 0 0
250 7 2 0.1288 -0.44622868234634694 -6.4370960503963035 -22.971892010418262 0 0 0
461 20 2 0.0516 10.506378175282629 -7.821360657132068 -25.83552084736193 -1 0 0
1109 61 1 -0.129 4.73779981948582 -6.91043389405277 -23.90413561251886 0 0 1
1111 61 1 -0.1734 5.319193831188677 -7.58920281553446 -25.01507154832658 0 0 1
1112 61 2 0.1403 5.988089510583353 -8.393023985267549 -24.871858648705878 0 0 1
1117 61 2 0.0516 2.836109325313699 -3.9340000716915844 -23.24680199000253 0 0 1
249 7 1 -0.1134 -0.9710667289207296 -5.495487495921033 -22.742679359544304 0 0 0
1952 113 2 0.0354 0.1633358995167445 -3.605549355783571 -18.762754813708256 1 0 0
1106 61 2 0.1237 3.4341006620026415 -4.223491374827363 -25.592490320536328 0 0 1
1105 61 1 -0.129 3.8688548871114348 -5.266769582771511 -25.37508949905261 0 0 1
1116 61 2 0.1403 4.344082333948393 -5.419952497977153 24.84547711960058 0 0 0
1115 61 1 -0.1734 4.432391010994789 -5.957388315378174 25.855875333034177 0 0 0
1113 61 1 -0.1134 5.151004416752581 -7.167829139954917 25.982751414091794 0 0 0
1118 61 4 -0.0696 2.8840903500582744 -5.709302082027434 -21.992218081711375 0 0 1
1120 61 2 0.0354 3.5444518230871402 -6.491904856518259 -21.620120237892017 0 0 1
452 20 3 -0.0182 10.904368837680527 -7.037667094769594 -25.2931916303404 -1 0 0
1626 93 2 0.1288 5.173081015381549 -9.88412775769056 -20.9477602391881 0 0 1
460 20 2 0.1403 7.796710915394045 -7.423178360754938 -21.88121614556968 -1 0 0
451 20 1 0.0266 10.569836352550595 -7.119818326061671 -23.8187749127406 -1 0 0
459 20 1 -0.1734 8.812791864874912 -7.15521792040549 -22.175323366680566 -1 0 0
449 20 1 -0.129 9.219881522538902 -7.201738118060405 -23.533781234424236 -1 0 0
450 20 2 0.1237 8.474070413617754 -7.366370137969648 -24.31749221022962 -1 0 0
458 20 2 0.1288 9.347069248266866 -7.259452354100774 -20.084689132809736 -1 0 0
457 20 1 -0.1134 9.733820633407884 -7.139572384477428 -21.130756234827405 -1 0 0
1374 77 4 -0.0696 8.690855082567285 -4.544343628995238 -18.37351273079711 0 0 0
1376 77 2 0.0354 8.288590356452811 -3.5931822015812016 -18.741874433453876 0 0 0
1110 61 2 0.1237 4.994664638251125 -7.270644122545321 -22.892478438312715 0 0 1
252 7 2 0.1403 -0.6098442643525608 -5.468523927836678 -20.541721085424076 0 0 0
455 20 1 -0.1734 11.085678797503581 -6.8188440737983145 -21.43823019104897 -1 0 0
456 20 2 0.1403 11.903682405245053 -6.837378627785848 -20.702966844557853 -1 0 0
453 20 1 -0.129 11.433835577967976 -6.816538849268921 -22.8045194200155 -1 0 0
454 20 2 0.1237 12.450906004457284 -6.568383281465429 -23.10369107986555 -1 0 0
464 20 2 0.0354 11.283039195069732 -5.084398466836706 -25.18062013384716 -1 0 0
2780 165 2 0.1403 2.690023781370917 -0.04931483084157529 -21.528449408373202 1 0 1
2778 165 2 0.1288 3.926568827203052 1.527274601018193 -23.158598246489316 1 0 1
254 7 4 -0.0696 -2.1159946731110684 -0.534734361704256 -22.513568730628595 0 0 0
256 7 2 0.0354 -1.0504119765602247 -0.23719336292656457 -22.180721038055356 0 0 0
244 7 3 -0.0182 12.717194461522507 -1.5256124063937087 -21.986751271680927 -1 0 0
243 7 1 0.0266 -2.198306081565496 -2.91811867681026 -22.19118822753863 0 0 0
245 7 1 -0.129 -2.3142329364553644 -3.522110812832063 -23.453025618371637 0 0 0
246 7 2 0.1237 12.919643294929077 -3.0209200008103503 -24.438817102108768 -1 0 0
241 7 1 -0.129 -1.6463645841638133 -3.6945398247457724 -21.126958086862103 0 0 0
253 7 2 0.0516 11.600675677510875 -1.747646065384494 -22.12894543639886 -1 0 0
1514 86 2 0.1288 2.962355247715789 -1.1923292000202814 -24.348824568668903 1 0 1
255 7 2 0.0354 12.967942607990233 0.36786102510709173 -23.01119836053858 -1 0 0
2777 165 1 -0.1134 4.372073210573733 0.6218637714699476 -22.72117336042239 1 0 1
2779 165 1 -0.1734 3.713647938566047 -0.27509004036715323 -21.927417310715324 1 0 1
440 19 2 0.1403 0.852795410443193 2.2560380180451016 -25.464353981856803 0 0 1
1375 77 2 0.0354 9.7027091844059 -4.5877361747096925 -18.006640606211054 0 0 0
251 7 1 -0.1734 -1.079643351970433 -4.961396845027343 -21.39656355474763 0 0 0
242 7 2 0.1237 -1.7278167105742603 -3.3208559695092243 -20.053195182742265 0 0 0
1034 56 2 0.1288 11.535252497221673 1.1515763194956732 -21.52960887263333 0 0 1
2773 165 1 -0.129 6.369847672102158 -0.8041290120669016 -22.721417517241598 1 0 1
2771 165 1 0.0266 5.655809574050525 -1.7487832650212112 -21.94226153600908 1 0 1
2769 165 1 -0.129 4.32747972953369 -1.473495262780536 -21.55415109537988 1 0 1
2775 165 1 -0.1734 5.728783312472561 0.3497194766222256 -23.150661241656895 1 0 1
2776 165 2 0.1403 6.1768978210745615 1.0718903372577537 -23.82921849114158 1 0 1
2774 165 2 0.1237 7.412310026781907 -1.0733864896291738 -23.085449291174243 1 0 1
2784 165 2 0.0354 5.666669029266254 -3.918560689513986 -23.484453019527066 1 0 1
1033 56 1 -0.1134 11.304082403177247 2.044473353903647 -20.97024879567411 0 0 1
2782 165 4 -0.0696 6.4450339678417 -3.9221160661554193 -22.75961572472632 1 0 1
2770 165 2 0.1237 3.8019263506925736 -2.2044482438201185 -20.9612371953077 1 0 1
2781 165 2 0.0516 7.096789115149762 -3.0203373521237964 -20.97758801511094 1 0 1
2772 165 3 -0.0182 6.247841291226745 -3.152192159312804 -21.690267457513837 1 0 1
2783 165 2 0.0354 7.418205627922779 -4.35552211584165 -23.007079806981515 1 0 1
1031 56 1 -0.1734 12.315929987201494 2.897158601015987 -20.516274210483918 0 0 1
1032 56 2 0.1403 -2.1818254654537683 2.7535907420168617 -20.54393541006326 1 0 1
1549 88 2 0.0516 8.424075141921119 -0.9955794781827696 25.163841918875242 1 0 0
441 19 1 -0.1134 1.1587562582333517 2.1539641269865846 -23.336111306722625 0 0 1
444 19 2 0.1403 1.200478321991695 2.4039674418584385 -21.179116143675145 0 0 1
443 19 1 -0.1734 1.1686898976708395 2.919538815967214 -22.135536632535295 0 0 1
433 19 1 -0.129 1.0774599304911672 4.303636482212043 -22.181483450099073 0 0 1
434 19 2 0.1237 1.082987852687456 4.87365338747402 -21.169259288249155 0 0 1
437 19 1 -0.129 1.1745513828641736 4.167141366386628 -24.57876059966664 0 0 1
435 19 1 0.0266 1.2201401781490178 4.938536878184368 -23.398222172913563 0 0 1
436 19 3 -0.0182 1.1364068526819135 6.425770127143267 -23.483435489483178 0 0 1
445 19 2 0.0516 0.47226410218550335 6.765438001574023 -24.23506910481726 0 0 1
446 19 4 -0.0696 2.3612741851675456 6.968092490354636 -23.235338569277445 0 0 1
448 19 2 0.0354 3.000351265434495 6.534687811663389 -22.39946086480349 0 0 1
442 19 2 0.1288 1.2419959633168098 1.0796224048296401 -23.222466420530353 0 0 1
439 19 1 -0.1734 0.9805222756736542 2.8234934456020047 -24.54717002928449 0 0 1
438 19 2 0.1237 1.215246783866359 4.586815755131276 -25.613741708339333 0 0 1
1149 63 2 0.0516 12.46211884207794 7.2463041590368364 -23.413616609265848 0 0 1
1140 63 3 -0.0182 12.351132697859109 6.147345398096384 -23.68567075927765 0 0 1
2220 130 2 0.1403 4.021335814039753 4.088159120919425 -25.086035274570676 -1 0 1
2218 130 2 0.1288 4.140990567473372 3.30972938833632 -22.76268136744599 -1 0 1
2219 130 1 -0.1734 4.977206020194974 4.203337482941329 -24.566259455369984 -1 0 1
2217 130 1 -0.1134 5.070651458695085 3.7111770921838545 -23.21419383100978 -1 0 1
1139 63 1 0.0266 12.542494747934857 6.140709384167 -25.18000884042376 0 0 1
1035 56 1 -0.1734 9.944390830071846 2.4625218600206202 -20.959239491463507 0 0 1
1036 56 2 0.1403 9.129077855021475 1.895798262716335 -21.374101663553105 0 0 1
1026 56 2 0.1237 8.592377977692923 4.119586824950389 -20.282620225717807 0 0 1
2222 130 4 -0.0696 8.409491784210402 6.94820380152717 -25.192621162661187 -1 0 1
2210 130 2 0.1237 6.034281745220058 4.994626969630828 26.095050804729837 -1 0 0
2212 130 3 -0.0182 8.489137947596323 5.6461212050624345 -24.96910956105228 -1 0 1
2221 130 2 0.0516 8.870103469189369 5.05581389615064 -25.822639482937607 -1 0 1
2213 130 1 -0.129 7.323503642074065 4.579932435716468 -23.08440363526144 -1 0 1
2211 130 1 0.0266 7.195573170931944 5.064031107397046 -24.40973367411461 -1 0 1