LAMMPS data file via write_data, version 29 Aug 2024, timestep = 30000, units = real

576 atoms
2 atom types

-12.142897441649659 32.72847515324684 xlo xhi
2.3292478910596213 18.256329820533125 ylo yhi
1.404550543321898 19.18102716827231 zlo zhi

Atom Type Labels

1 Si
2 O

Masses

1 28.0855
2 15.999

Atoms # full

290 33 1 1.852412586527493 -6.248378378977636 5.746518535567404 4.816742491199464 0 2 -1
488 55 1 1.991627957697144 -6.13483779363294 5.716420035247542 7.816157596916289 1 1 -1
124 14 2 -0.9787362881685354 -6.00233672071015 5.244420533216894 6.310975448465477 -3 -3 2
210 24 1 1.922426829363642 -5.990249835226085 8.514060188841764 8.909102556919134 1 -1 -5
536 60 2 -0.9217722846684181 -6.837355824993582 4.3651407692768345 4.1605055880930575 1 4 2
404 45 2 -0.9857222547381995 -7.258392061252423 6.972576019786093 4.731059566543821 6 -3 4
159 18 2 -1.028985967514107 -7.475621247548257 8.398722613128662 9.460662961761585 2 2 -14
61 7 2 -1.025480126976726 -7.609570357601378 5.377528217102949 8.246877956499237 -6 4 -1
198 22 2 -0.9221644787860434 -8.199157045125386 8.071674229274594 2.5393617069867758 6 -3 0
126 14 2 -0.9283860864784366 -9.28617785810166 3.6774086421891923 3.9729955925690446 -4 6 4
302 34 2 -1.010093916887943 -9.901905095751781 8.679104404677535 8.873861709481826 -2 -3 5
374 42 2 -0.9308585998659547 -9.32542854514513 8.62269815120014 4.906243249661465 -2 0 -6
36 4 2 -0.9417005374456691 -9.476200605297732 3.968691239311953 9.186188169851926 3 2 2
137 16 1 1.988707290762238 -9.124067648206198 4.936679126450596 7.9796481738045575 2 2 -1
120 14 1 1.908639980562368 -7.778601546786676 3.137630659588088 3.6519388844030867 -4 5 -5
260 29 2 -0.9873134542577534 -10.124093003758402 6.176219669806686 7.904138573608415 -1 -1 2
332 37 2 -0.9470996908118128 -7.573674132169918 2.607314534723695 2.1476449128227832 -2 0 -2
507 57 1 1.817494454042779 -7.969266898752778 8.334977776970042 4.150658146804914 -3 -5 6
4 1 2 -0.9427048109262128 -9.348518565373858 4.2624611362805105 6.548901820651356 1 -2 5
354 40 1 1.847774736848771 -10.742364454156762 9.254296870360896 5.544465276096783 0 4 -1
425 48 1 1.795328536625558 -10.220487553810667 4.133186663684197 5.223680908255163 -5 3 -1
330 37 2 -0.8739653314499513 -7.183476909278569 9.787733015761322 4.144012583587859 -2 2 -7
542 61 1 1.984223415461552 -8.796273420709475 8.987485183583292 10.010165856508047 0 -1 -1
110 13 1 1.949296000359715 -10.853969035892714 7.620191784704728 8.169191262167038 2 3 -5
268 30 2 -0.8598961861061971 -11.175843629580328 5.411196406869109 4.807620287148361 5 2 4
16 2 2 -0.863088945026032 -11.249608085916748 2.959788525402929 5.589913518365201 0 7 -2
179 20 2 -0.7537227859768214 -11.39544919294655 4.38760552625568 1.9748573860767389 2 1 -5
436 49 2 -0.9258313441316993 -11.17541136242289 8.403794614573403 6.796771417017454 -2 -3 11
574 64 2 -0.4989325751147941 -11.920277118513802 9.338101454602402 4.510526919052284 2 -1 0
242 27 2 -0.7186069462861044 -11.574446641181666 6.769966740698142 2.3886914146299882 -3 0 3
146 17 1 1.352969265317352 -12.115593055174495 5.677199275838996 3.533438331631912 3 1 -7
424 48 1 1.519275238674913 -12.106817598839642 2.8857155611716525 1.7415781929679413 -3 -8 -1
214 24 2 -0.9301980244807825 -12.127866967750592 7.369264377383865 9.114758824828751 8 -1 6
419 47 2 -0.9859333293747734 -5.664028066480296 7.245597125847101 7.9534488116105795 -8 -1 -1
306 34 2 -0.969023539775416 -5.689167680141163 9.762497946163968 7.919258199230879 -2 0 0
315 35 2 -0.922644541480422 -4.72265089624062 6.154826431324474 4.298150007937871 9 -2 0
402 45 2 -0.9598006799262661 -5.163448226416627 4.823428019313329 8.752936342856747 4 4 -3
231 26 2 -1.067051087627012 -4.239001380776362 9.939889138403796 5.604394752287675 2 1 6
380 43 1 2.049648593754888 -4.417787442118673 10.281673886050303 7.134771012792551 2 -5 -1
212 24 2 -0.9163254509185478 -4.270906599685343 2.401482816728751 8.333921468616559 -3 -1 -6
60 7 2 -0.9087112447031934 -3.857491711045082 3.0736834910473365 3.1512423000245935 5 -1 -4
377 42 2 -1.015106603402643 -3.7702272534438936 8.865614702079352 3.2344049743688625 -4 5 -6
46 6 1 1.891239656071867 -4.068825991489222 3.733416771526759 9.118103106308212 0 -2 4
300 34 1 1.871759797842371 -3.333120101696844 3.5442098857015507 1.696787251431752 6 -2 -6
199 23 1 1.979503334942854 -3.5640644880265313 8.541946438761098 1.673887106467353 -2 -2 -1
366 41 2 -0.8876910298526542 -3.139042688535868 4.333147086862924 5.472747663227406 -1 2 3
75 9 1 1.82480572909532 -3.228130537597817 5.892808064887543 4.827526310894094 -2 -3 3
360 40 2 -0.9416008062164604 -2.1452103831997302 5.886981227246229 3.649672401101359 1 -2 0
118 14 1 2.069353154658754 -3.32067963711002 9.87117982047587 4.3672688293254405 4 -2 -1
364 41 2 -0.9645247957943722 -3.158669032201953 9.82200271179298 8.060012421887974 -5 -5 -1
352 40 1 1.718526507529945 -3.353478596379608 2.939840626153585 4.700468837914435 -1 -9 6
175 20 2 -0.9272013189492583 -2.7090350598418453 7.004646424476963 5.8202272283050736 3 -4 -4
474 53 2 -1.010795408444605 -1.9420491119685366 9.327119111397362 4.928030513044774 2 -5 -1
220 25 2 -0.9124955907751394 -2.51479916351194 4.240751673509263 8.65077266167484 -6 -3 4
38 5 1 1.950605293343467 -1.9598505319948778 8.958343860932526 8.633269500247268 -2 8 -4
401 45 2 -0.9760983961730387 -2.3729808858533588 7.72280643027356 9.630183024855558 -2 -1 -6
408 46 1 1.901026899518785 -0.9682371747963412 5.301720425136457 2.656823874838576 -1 2 5
314 35 2 -0.9265805082479355 -1.197959157505725 8.453888506258487 7.309262282591674 6 1 7
470 53 1 1.820825837304679 -1.4557154851264702 8.06692830976328 5.760039431042192 -4 4 1
201 23 1 1.919807280528267 -0.9480034330280276 4.064735279860289 8.341353326010983 -2 3 2
168 19 2 -0.9022041527626996 -1.0059945558950485 9.8682501585495 9.501754132863274 2 4 0
484 54 2 -0.904848672003742 -0.7702534450443412 3.1090837442929837 7.042340292569838 -4 1 6
40 5 2 -1.010468635383545 -0.2669792507883759 3.5255735890207314 9.656956868304373 4 -1 6
324 36 2 -0.9766575955922111 0.4662806931153778 8.93460855203148 2.2153945944178006 2 -1 0
476 53 2 -0.9571451046655299 -0.17471965535218636 5.427716732954655 8.061170255303683 1 7 0
411 46 2 -0.9197589756127541 -0.15120561250125064 7.2791909658147285 5.093012947834606 6 -8 -7
239 27 2 -0.8611193252476809 0.42948349414008824 4.740840847954104 3.409889914744219 4 5 6
123 14 2 -0.9004471980324426 -1.7934197152473281 4.217958999045861 1.8083446603382722 1 -2 2
50 6 2 -1.010304989002721 -0.5231941520596148 6.511912437610912 1.7522657175244596 2 2 -6
249 28 2 -0.8582903226703528 -1.848542776261782 2.42950469287595 4.242420328632515 2 0 -4
392 44 2 -0.9184961824475356 -5.091721151673842 8.424305999859826 10.24717623325946 3 -7 1
228 26 1 1.910940582427639 1.630771678299599 9.962631218048646 1.8378079463164463 5 -1 7
553 62 2 -0.9750658241051173 1.6287029622063809 6.750089998596188 6.774832954200304 -1 5 0
498 56 1 1.925252243720434 1.432290328610911 7.388489918744989 5.338081562320895 2 5 4
180 20 2 -0.9567362694059854 1.813381722924964 8.968614215354624 5.380264554727434 7 -1 5
278 31 2 -1.048019508164267 1.2463650190160038 7.212407925353937 9.35839164805941 1 7 4
236 27 1 2.052668027035424 1.286589909678904 6.124975351067356 8.20265967421053 2 1 -1
256 29 2 -0.9144842904448112 2.2599270920444816 6.485634667955986 4.2663264821670905 2 -1 -3
173 20 1 1.86680053033403 2.0551958684111913 5.019120591580366 3.593618257112525 5 -7 3
422 47 2 -1.016293982832984 2.473269484154743 5.1744865564103275 8.546554982874417 0 -1 -2
373 42 2 -0.8539965501874645 2.7484023842761616 5.242811113694621 2.1427244290245495 -3 3 0
550 62 1 2.046615538143076 3.2264783864408386 4.201325615309996 9.549127784558166 -5 1 -9
420 47 2 -0.962815623374598 3.527567871623292 8.328822100333479 9.463215040772383 -1 -4 2
27 3 2 -0.9497599218010484 2.5940714162634944 2.753541448385081 9.301903370998089 6 11 0
493 55 2 -0.9497483996177235 2.9407440653497723 3.869377213485321 4.258915552461041 -4 1 1
311 35 2 -0.9645461858525239 5.776005023914713 8.465103114453507 4.748526848277523 0 -6 0
289 33 1 2.066390360139609 6.17379282814888 8.858362751622966 3.2288424091972265 2 -4 -1
57 7 1 1.990956348981982 5.886009566048568 8.148061991940743 6.333241462830933 3 5 -1
558 62 2 -0.9915688336891886 4.80168579063497 4.346281566332992 9.55407052921633 3 2 -4
131 15 2 -1.001353503317462 4.945110928110736 4.236020979297052 5.892473271552914 4 4 1
111 13 1 1.987774999419343 4.085608095870054 9.515016627170695 8.519398623381386 0 -3 5
273 31 1 1.95095829325 6.081662589892076 5.128507047254262 6.5285513732270255 -2 -8 6
107 12 2 -0.9529978292195035 5.573858146429149 6.638575284085404 6.728067884260787 -1 -1 -2
227 26 1 2.002673127798119 4.12462139441012 3.1075232476913213 5.051778751733551 1 2 0
35 4 2 -0.982550203766685 5.032191363271309 9.159542117253086 2.1435292375269612 5 4 2
501 56 2 -0.9712574910946103 4.789291921426049 8.938756334300255 7.233797628689576 -5 7 1
381 43 1 1.877356611243796 6.393043267715765 4.095862448162339 9.44036010492787 -2 -1 -5
13 2 2 -0.9432614941016826 6.660460523405021 4.506086383911683 7.8924526890853235 -1 -4 -2
464 52 2 -0.9153608087357296 5.46990462082076 5.3890468039035895 1.8831158429921517 -5 2 3
186 21 2 -0.9174184290225786 5.218026212680687 2.538387912578504 4.0401644976727775 -7 -1 -4
517 58 2 -1.01159905647274 2.720156212256999 10.281279054434258 8.24412808585582 -4 -4 2
497 56 1 1.843813311103576 6.8509780619769245 6.218681260201059 1.6085748036357226 -1 3 3
446 50 2 -0.9586797424509603 6.746556806360992 7.522165729863981 2.570680603609267 0 -1 3
216 24 2 -0.8982186422944212 6.903533693964917 2.5592610633831994 9.517297796829842 -6 7 -7
559 63 1 1.987191955034875 2.1543418225114355 8.075620988418944 10.274879834531014 7 -2 1
382 43 2 -1.019393286777987 7.397051378838146 8.21578426379958 6.8322782823039505 -5 5 -5
320 36 2 -0.9673981925771328 7.81333652855756 3.3342092429934755 3.922318435989977 -8 -1 -5
284 32 2 -0.9528211287899484 8.22020614181491 5.438395763353533 1.7413008950624524 1 0 -1
5 1 2 -0.9433773132874661 7.421350432455636 5.223856269891302 5.596509753738954 4 9 -1
91 11 1 2.044600611760564 8.627450126859046 7.876216427664839 7.799781152282961 7 3 5
370 42 1 1.850604639723437 8.581413635209085 4.480660515157992 4.7575607231135235 4 0 5
112 13 2 -1.000239892485311 8.125677323827805 6.986116118153259 9.011720680747903 -7 5 -7
162 18 2 -0.8713215417013496 9.296805555786694 5.70494754218209 3.9715641829226285 1 0 -5
570 64 1 1.723941076840704 9.650090170391682 5.867506654287197 2.4093763680594686 -6 -4 0
45 5 2 -0.9600101187059941 9.018405848285763 9.297582313646739 8.502509860778467 -2 -3 -5
477 53 2 -0.9783975860251491 7.225338202238202 9.96467680576399 3.40148366743936 2 8 3
170 19 2 -0.9800581342031812 9.917180121590356 7.180906492032815 7.299248628255763 -5 -7 -3
171 19 2 -0.9200782637307959 9.812403534569508 3.826190294737617 5.4750009791203835 3 -2 3
232 26 2 -0.8655553862217417 11.5817809511279 4.329407731274108 10.008540810677415 -4 -2 0
296 33 2 -0.9013118872734297 11.548209809289741 5.907614918343505 5.942584304151013 -9 -4 -4
479 54 1 1.764554107280893 11.347328044976525 4.252636274350563 5.886401860113886 0 -2 1
136 16 1 1.78932972116576 11.527719376781107 6.957366035660157 7.11388432730193 -4 0 2
357 40 2 -0.7950019219879946 12.311003825321091 6.15421864008297 8.339321972229715 2 4 5
487 55 1 1.686646965853403 12.367634279736773 4.5234370648029 8.620426416324687 4 6 4
104 12 2 -0.929460604237015 11.604123132321241 3.805143367284069 7.407245618114733 0 -1 4
468 52 2 -0.9069112623570453 12.471929085750165 3.683100346083234 4.8603882145316835 6 -3 9
549 61 2 -0.9000018249751519 12.364056762885383 9.857305001987147 4.5983027177912525 1 2 2
418 47 2 -0.9151788802012288 9.479882681415496 2.842308591252573 9.648024098302198 -5 2 1
43 5 2 -0.8560552902903417 9.976923946892523 7.393757906538065 1.9141873050207698 -6 3 -5
492 55 2 -0.8995010121507375 10.736347647195636 4.718559799140791 1.9716277811589897 4 0 -2
405 45 2 -0.8501391080400318 12.360353942796436 8.277439807838782 6.719717046247494 5 -2 -3
295 33 2 -0.8236293314606314 13.300493827851167 7.194401117830166 4.570508705630246 -6 1 2
155 18 1 1.640967611897085 13.13815244206652 8.674331955553079 5.337289570875565 -4 -1 0
17 2 2 -0.5220118962137165 11.842814934141419 10.137544908962198 9.811041436941503 1 -1 4
84 10 1 1.465269407323073 13.601584002100903 3.746849942093042 3.7370785105334603 6 -3 3
531 59 2 -0.8186227737580637 13.886400206194164 3.8957420021277835 8.468542743720365 2 4 5
59 7 2 -0.8309012367797539 14.588005150211043 4.998498516642889 3.626707577520932 -5 -1 3
55 7 1 1.56991236751375 14.739023964827624 6.424483518864597 4.426736355191443 -2 -2 1
509 57 2 -0.8268757569560075 14.615745617904857 9.33908800505203 5.333272263240601 -2 4 -3
530 59 2 -0.7514533765660866 15.62642333782528 7.616395689857998 3.7032633921112033 1 4 -6
417 47 1 1.50335287342383 15.624517611498035 9.272719550777197 3.9511583508997643 1 3 5
49 6 2 -0.4996437989802548 15.509932234239013 6.268477105067582 5.790700710464408 1 -3 0
564 63 2 -0.8270323827556599 14.984281682451027 10.079872206670235 2.6989854519941647 -7 6 4
331 37 2 -0.4616737486402104 17.16957771333747 9.661736807925788 4.25145668955188 -3 1 -3
387 43 2 -0.8883825769104031 13.871628957534384 2.551203122460708 2.7105562094962448 2 4 -9
237 27 1 1.206517303546913 30.54096660153057 3.689128216676529 3.5676479287556795 -8 4 4
158 18 2 -0.7861693660347702 31.196985686925842 5.12730327665071 3.6224226677802864 7 4 -4
349 39 2 -0.746925651025817 31.118825529829785 3.093362112249119 2.1522475547464 -6 4 6
342 38 2 -0.7795218839758266 31.141677239042224 2.6521946283040494 4.647978461239438 -6 -3 5
197 22 2 -0.9005791693351883 -7.743537666327018 17.682760641584068 4.474598800378598 2 -1 6
29 4 1 1.878047129968422 -6.088784656246547 13.919105988511008 4.746562942319475 -4 4 -2
140 16 2 -0.8826544570785743 -6.1769996807526 13.714907219892229 6.323158352600489 -4 1 6
221 25 2 -0.9210120898822803 -6.374168664631709 12.499353263881023 4.085808573786786 0 -3 1
224 25 2 -0.9633238094604389 -6.0661687000068625 10.858426222185123 2.031919529653624 0 -1 0
344 39 1 1.762567419459308 -7.049940832532336 11.194102112378541 3.253434380210405 1 0 3
86 10 2 -0.9196820111738521 -7.274177806717312 15.027480154078281 4.429416670621835 -7 8 2
196 22 2 -0.864796418086526 -7.252857433527893 12.270051088217627 7.851449874246049 4 6 -1
116 13 2 -0.9623927693355868 -7.3986262552478435 16.50934263359304 9.386634013201636 2 0 6
76 9 2 -0.899250873263765 -7.941907394663709 16.300038058170333 6.668620889646995 4 4 -4
301 34 2 -0.9414211404100937 -8.585505173938879 14.413992277787356 8.57274945149727 -2 -2 1
165 19 1 1.689390884188938 -8.709494434673598 12.95817063103288 7.8208797010182165 2 -1 3
192 22 1 1.876560765470613 -8.137801210083213 16.179872320823314 5.062283424364531 2 3 2
203 23 2 -0.8536962167611816 -9.803910183029918 12.343457928599031 8.927763486330564 4 -4 2
557 62 2 -0.9744451381423336 -8.54038587685972 11.457648253240887 2.6773904876294665 0 -1 3
271 31 1 1.814513228100815 -8.350365310622504 15.949886394513612 8.226632317434824 5 -2 -4
33 4 2 -0.8178104361339926 -9.823712442987544 16.577735728510945 8.450441660467805 1 -3 -12
347 39 2 -0.8965816094550768 -9.224761548282167 13.05108684941439 6.299711012803096 4 -4 -5
494 55 2 -0.8613228425589453 -9.663277678335355 15.643370262893479 4.771649908070928 -1 -4 -5
443 50 1 1.426694683959884 -10.458940456067062 12.348259846688812 5.542034184009937 4 3 2
430 48 2 -0.936478577733474 -9.993611748478585 13.574063480564472 2.101668925739142 -2 1 5
485 54 2 -0.9104572367766607 -10.692039623568679 10.815909326687784 5.844837733080648 -1 -1 -2
182 21 1 1.62580351591961 -11.292081668674635 15.119676033488116 4.73336454276 -4 -2 3
92 11 1 1.294686725071248 -10.989044821361738 16.31897480762442 9.611815038479826 0 -2 0
93 11 1 1.825188854192937 -11.360763271750034 14.38931781971811 1.7383690558686606 -1 0 -1
490 55 2 -0.8297236451829741 -11.453488179627591 13.595779069649788 5.3464101142020235 4 -8 0
257 29 2 -0.8649443752886817 -11.663085189268916 18.040953427411807 3.1458943499797107 -8 -1 -2
122 14 2 -0.8657832736159154 -11.748130445074521 15.10300718548101 3.155026676136386 -4 -1 0
3 1 1 1.765820659175123 -5.744034723766997 12.872911372369316 7.68958462736669 5 -7 -4
325 37 1 1.813755273932784 -9.210074707891552 12.290651190305761 1.4958660726451745 -3 8 2
566 63 2 -0.9907546609179956 -8.596813258401482 10.549799225534422 10.277152267032951 2 0 0
250 28 2 -0.518028213707596 -5.349213368561856 13.708964883629182 8.989467539897303 -3 -2 5
575 64 2 -0.9149795888290766 -4.621561921210326 14.606862707018232 4.436322842797625 4 4 -5
386 43 2 -0.9246810133095817 -4.621064106950394 11.835327973396538 7.229064720846338 4 -1 -4
94 11 2 -0.9737601435726305 -4.624952023689418 15.633708463517461 2.163753439751972 6 1 0
189 21 2 -0.9031705314186746 -3.904341495327426 17.706963749097824 5.667242728428721 -2 1 0
307 35 1 1.942442349298857 -3.645159544029264 14.896262766215818 3.182649774901961 0 0 -2
299 34 1 1.470513114165926 -3.722577192993553 17.34105379077534 7.196286145820275 3 -1 2
53 6 2 -0.955946857139335 -2.4012775619106677 15.902292499494864 3.4829328151600194 -1 -4 -2
350 39 2 -0.9735297753381413 -3.065611676642108 13.57420069678847 2.497857344062412 -6 1 4
274 31 2 -0.6899086794963439 -3.7784172380368677 15.709399654155693 7.64270748652629 11 2 1
144 16 2 -1.016660510607671 -3.1055114127842174 11.239680697073979 3.5673178568383768 1 1 6
190 22 1 1.417364360251395 -2.571220874590079 15.029847511797163 8.687985885665825 5 1 -3
156 18 1 2.018936398270159 -2.2353222838837876 12.235595400150704 2.6563943083170907 1 4 -5
554 62 2 -0.8820359323486713 -1.8134837724487323 16.95876738762309 7.965298286728055 3 -7 -2
391 44 2 -0.8026978962083905 -1.7653971131605957 13.626395212927683 8.393366612334692 -3 3 -7
208 24 1 1.823912085076926 -1.2080067087500463 16.895180429771116 3.9888761263446892 2 2 2
211 24 2 -0.8878191132993627 -0.8960197152072809 12.926408184690287 6.046841979768349 3 1 2
70 8 2 -1.015509770610562 -0.8713504602144226 12.51226647427165 3.3385969597621328 5 -2 8
442 50 1 1.795143776170071 -0.40679815093148797 13.283030360863924 7.5853130999900005 0 -1 -3
523 59 1 1.777872475233907 -0.7085215471746125 17.40596659624994 6.942286233297936 -2 -2 -2
106 12 2 -0.9430327673769914 -0.696254107818076 16.6484336466307 5.551498785516512 -2 8 -4
448 50 2 -0.9458685299121753 -0.16155269068275935 17.245022614449233 2.8596194260294148 -2 -12 6
166 19 2 -1.025936276032755 0.48709420871052167 14.572744132262 7.8209248527592266 4 -5 3
14 2 2 -0.8688162544448544 0.47458331431293743 12.04687008105373 8.190671578875008 -3 1 2
506 57 1 1.833375203544049 -0.024572925048094163 12.560952190914438 4.707497526434008 -2 -2 0
481 54 2 -0.8226488010981179 -2.7203077594904794 15.232074247063698 10.278258118516097 0 4 2
154 18 1 1.632297910636103 0.3973791130182409 16.948583500407437 1.450496250261893 0 4 2
439 49 2 -0.9714173322952215 2.326140632824087 10.354762582422042 3.2192753648767813 -7 1 1
163 19 1 1.920005289255572 2.2589772996776496 10.364417471865899 4.80866649304109 1 -1 0
365 41 2 -0.9507426575430944 0.7091010904548316 17.119115282877026 7.607881432556635 1 0 -4
226 26 1 2.021156690182434 1.5163229751022236 15.779791767136725 8.018182125560223 3 2 0
414 46 2 -0.9404847734776904 0.8696918073879996 13.862653097512789 4.583011487564156 8 1 -1
71 8 2 -0.9582733668652481 1.9748634648503103 16.06474255274803 9.493624923759866 7 -2 -6
449 50 2 -0.8657751534499972 2.2268994675215943 13.594433076412775 2.5316691564954326 -5 2 -2
438 49 2 -0.9721125068391622 1.0022853951616781 11.334105925484991 5.062095388308512 4 -4 -2
65 8 1 1.946335398882383 2.1088924083070975 11.74660689884479 8.413113998683997 4 -4 -6
335 38 1 1.792834336709505 2.3558055528996533 14.169762658899389 4.066219827034627 2 7 0
499 56 2 -0.6875303251866283 2.2468038773907733 16.150108329592676 1.530937282216144 3 -8 1
176 20 2 -1.032288526594044 2.7567297876243035 15.684047433987315 7.093069760341608 5 -2 -5
26 3 2 -1.020506483169989 2.5064898078865454 12.179115292459528 9.865928615006725 -1 3 -5
410 46 2 -1.025910247117957 2.9020353814512525 12.647046072691806 7.389004638187569 4 -3 3
277 31 2 -1.071912451010832 5.121738039690555 10.484970098978094 9.239616069337124 -2 2 -6
413 46 2 -0.9044968199472659 2.7496396894375366 15.715609097029906 4.470930679745031 3 2 1
526 59 2 -0.9141698891984865 3.6009275879676554 10.978588462432711 5.559816270237289 4 -7 2
337 38 2 -0.9515554466882356 3.44688167970083 13.296611218507525 4.865952629235594 -6 1 -1
453 51 1 1.862496465880921 3.839869949040711 12.44907919652687 6.120861034993384 -6 0 3
336 38 1 1.924398808725351 3.4849476227868976 16.275195584954968 5.820350064201089 -1 -5 -3
421 47 2 -1.023493922701748 3.593778558654879 17.838521895874543 5.874397652130164 -1 -3 3
252 28 2 -0.9539221189441903 4.926533347407883 15.540681400892439 6.006865621236113 3 -6 -1
34 4 2 -1.005128757798653 5.369028597469786 14.520141653934546 8.559144133862034 -5 4 -5
540 60 2 -0.8479594844062894 5.029279936990896 14.720059345013675 2.356492015455301 -1 9 13
431 48 2 -0.8513634452682275 5.341944554311294 13.001824960892755 6.4700417544418585 -2 -6 7
11 2 1 1.91324709760448 5.660552611777852 14.563744977037206 7.039907329079058 3 7 -3
348 39 2 -1.008025424334875 6.197511562457208 12.592991337552812 10.189658375107635 -4 1 3
460 52 1 1.761961853726588 6.326766615013067 13.777608488857119 2.077252721200704 5 0 -3
416 47 1 2.046242453147533 5.627764873589445 14.068619224763403 10.085746276684493 -1 3 -9
496 56 1 2.018315641007898 6.4850914086465075 11.072061966593969 9.72018373372806 -4 0 -4
491 55 2 -0.8691401530295388 6.457546217441681 12.423621272863182 2.938531539737933 -6 1 0
471 53 1 1.788978506230438 6.817715305923702 18.08730337275395 4.306986742325082 1 0 -3
456 51 2 -0.9341897079895328 6.947744779620159 17.637295615285325 5.8785935930966176 -4 -3 3
56 7 1 1.805392194933917 2.312178407124806 17.42616982755621 10.272364280999236 -2 -5 0
167 19 2 -0.9225027094647189 7.137340984145283 15.097435169817038 6.963185741857835 -4 3 1
12 2 1 1.875643897664542 7.878586483630706 16.49157530672261 6.522683563803709 -2 2 1
58 7 2 -0.8861275010426338 8.573793459953546 17.22163804506915 7.7756402409377 2 1 1
200 23 1 1.92069007404526 8.21044594650272 16.196516567416225 2.38398625403533 0 3 -2
327 37 1 1.823201024233723 7.802739571911506 11.497618428265822 3.2096146611018987 1 0 6
372 42 1 1.847240046757343 8.343112403466527 17.696078095474114 9.311260749780473 5 5 -2
403 45 2 -0.9167735759071444 7.23718368678659 16.763545517065815 3.51755312775244 -2 -2 -5
527 59 2 -0.9381939864375656 7.46497370193763 11.273903966858954 8.484985468308253 -4 -1 0
482 54 2 -0.8574655533087108 7.750689502903185 14.612084375849973 2.3495886301871085 9 6 3
67 8 2 -0.9205987121140106 9.087475788100686 16.101794539807166 5.537918572265287 -3 -3 -5
384 43 2 -0.8928405714521208 8.405762987391693 12.206165677513043 4.519003294599306 7 -1 2
441 49 2 -0.9371608793686457 8.756581339991538 11.58384757036414 1.89729558083281 -1 0 -3
426 48 1 1.83034561157914 8.999474595805896 10.850668370259804 8.117410330906758 0 -6 6
303 34 2 -0.9257454943041784 9.292294606079249 11.057243775768443 6.507019840398703 6 -1 4
80 9 2 -0.9304633640083384 9.793513934869864 16.247664132044576 2.7989470694118004 -7 1 4
473 53 2 -0.9088016539622733 8.594091794065172 16.366267465644505 10.172077285238023 -2 -2 1
103 12 2 -0.9427984396604159 9.988113824287147 11.708087110256175 9.056014914827607 4 7 -8
191 22 1 1.941954740790045 10.341480595999737 15.104372157833446 5.7234056399705215 -3 -1 -3
304 34 2 -0.950613640440605 9.832275592170326 13.6504140337244 6.164104867074367 6 3 0
533 60 1 1.923491744750476 9.70105310939137 12.206681534019962 5.470918248412485 10 -7 3
238 27 2 -0.909303670120966 11.240896302735312 15.035564938554279 4.42500277168029 3 -6 1
235 27 1 1.787775445233077 11.196446235680082 15.439238916346516 2.8297924609101996 -6 6 -6
6 1 2 -0.8617527572160399 11.0951947611101 14.097307058544827 1.9537141953764585 -2 1 -8
400 45 2 -0.9336703816157321 12.534388397885163 16.26803922070406 2.4084396322043284 2 4 4
72 8 2 -0.9253953240604791 11.20791376475399 15.702542246008084 6.910990377145167 0 -3 -4
451 51 1 1.772194274909562 12.5219450105911 11.468801135319712 4.819335359431798 4 -1 2
423 47 2 -0.9525208448223962 11.00682336980245 11.972685221023442 4.643109200606654 -1 6 6
412 46 2 -0.9728028560987715 12.508103528453567 15.093154765036521 9.004651284519054 2 -1 -3
2 1 1 1.886612695328561 12.6734144390972 15.813201217699339 7.562878424955463 0 1 0
561 63 1 1.881351323572922 13.028967743340292 17.605425318412124 1.6709436509841085 -2 2 2
532 60 1 1.849121481262103 13.08629736661398 13.826400659240466 9.734719995646056 5 0 -3
157 18 2 -0.8967252610915395 13.158734580812403 12.029866026719912 6.232927116896408 -3 -2 1
127 15 1 1.821901695069172 11.083161103371335 11.443984319829111 10.171333742243128 1 9 3
188 21 2 -0.9146953526606311 13.424140187465511 12.114472359793748 3.6891775898654573 -1 0 1
555 62 2 -0.9415947798595455 13.425262111776679 17.243483042815022 7.587338692482461 -2 -4 4
495 55 2 -0.9153586124753684 13.42862999930496 14.721598475399444 6.721262001892751 -1 5 6
265 30 2 -0.935419038684555 11.991764563961095 12.791863750979923 10.281198632332995 -1 2 1
69 8 2 -0.4754454011157071 15.760067101820429 18.20544985205232 7.761947943167422 3 0 -3
525 59 1 1.681537713123011 14.350693364352004 18.22020974106423 8.439310727507841 1 -7 2
282 32 1 1.67748167948619 14.022874101526856 13.196527976038107 6.958211798955841 -1 2 -2
132 15 2 -0.8942416400761708 13.885259427215296 13.02171631812033 8.540259084879153 -2 -1 -3
385 43 2 -0.8275529108503932 14.539109729302528 17.703218137224873 9.97012857708823 -4 1 1
461 52 1 1.394908088933425 14.359261480490943 11.583366667493243 2.525849877923523 1 -9 3
465 52 2 -0.4672724312372666 15.609579883237018 13.135282619473596 6.478097471724376 9 -3 8
390 44 1 1.6325154975536 32.689113683616206 17.942962384100646 4.664043887317673 5 0 -1
275 31 2 -0.7772958434362226 32.67797605143326 16.37786673766184 5.291026954022534 -1 3 1
77 9 2 -0.4596418298660493 32.61777310123813 17.241982518719837 9.604855609153274 -4 -7 -9
187 21 2 -0.9973139489123055 -6.692423126705045 6.208037312762098 18.980336862587592 0 1 3
64 8 1 1.668101047292022 -7.886954783943941 7.208682840945696 19.021571648494017 6 -5 -8
48 6 1 1.453705113645224 -10.80559186590065 6.2348228457504185 18.74873514164775 -1 7 0
321 36 2 -1.023709627341043 -6.385807410394196 3.721164127621787 12.062395073135468 4 0 2
328 37 2 -0.9920198549380164 -6.094858174996345 6.339604686346942 11.630706557589722 6 3 -6
41 5 2 -0.8867337605336354 -6.104082900838302 8.990253754409629 15.335689502853308 0 -5 8
100 12 1 1.997348347288517 -7.013225251821943 5.166462556721521 12.199921863393083 -2 6 -2
455 51 2 -0.9379923561304554 -6.211415021584823 2.595977913470128 14.944248476068125 8 6 1
338 38 2 -0.8543462979505186 -7.132242549618107 8.722251310853224 17.810874649686163 -1 -1 -2
552 62 1 1.936835945017241 -7.4245790539387375 2.889872581192627 15.877253595391267 -4 0 7
396 44 2 -1.040597189719343 -7.396746004068348 5.5172913983270835 13.73417081414788 -1 -7 8
142 16 2 -0.9249187076094362 -7.601432294223065 4.510578507699181 15.966294025543355 -1 7 -6
316 36 1 1.636499659885738 -7.476023641282436 8.556959727441829 16.179927093942137 5 -4 -1
538 60 2 -0.8786151199732882 -9.25764123610503 6.68313038806731 18.455701460393854 2 7 10
292 33 2 -0.9738429466710493 -9.786001861988115 5.463175613192195 14.946398698703316 4 6 -3
262 30 1 1.868701897150027 -9.514318582657712 4.09227832482752 10.824517676343564 2 0 -1
160 18 2 -0.9177648670566513 -8.03515791533363 7.073489457742236 15.819928578687191 -6 -1 0
229 26 2 -0.9844821143835955 -8.410753819563109 5.056937472823087 11.39384935178936 -3 5 0
267 30 2 -1.038590816748691 -9.71035749566947 2.7578625061735873 11.625060294780905 -10 2 3
108 12 2 -0.5458784272569583 -8.666268194643388 9.5899123431433 15.789994700889235 4 0 3
371 42 1 2.023778269126064 -8.224892871225213 5.668864204067854 15.041212735780823 -2 -3 3
51 6 2 -0.9998611154557231 -9.31419168099381 8.37550157589575 11.410942333678666 0 0 -1
334 38 1 2.017523037358254 -10.567319228450316 8.371724977972072 12.37901701091703 -3 -2 0
81 9 2 -1.018248837601774 -10.370745522978813 7.213403562218405 13.392420491048588 2 -3 3
440 49 2 -0.9504137812344889 -10.732319922947365 9.783904184933645 13.194875409303997 -1 -3 2
37 5 1 1.868150147661211 -11.077718339707967 6.1361611867094155 14.320755402479406 0 8 -4
310 35 2 -0.8770494449078848 -10.87794019163813 4.973688967524609 10.999698745949596 -4 -2 3
356 40 2 -0.8709080790021465 -11.80711316179133 6.012629196327284 17.535019820111394 -3 2 -6
313 35 2 -0.8682399198285856 -11.872166958968334 4.996686672554208 13.52101578172184 2 -3 -3
149 17 2 -1.071868932428603 -11.845518315085824 8.218602794238787 11.507233438546981 -4 -3 3
363 41 1 1.662269195283469 -5.795227208481388 10.273670102748785 18.423724656345364 -2 -1 0
432 48 2 -1.011980403108744 -4.151748846241454 7.131230614511325 19.074421895238274 -2 4 2
151 17 2 -0.9435409687141311 -1.9979949376998665 8.535521163082343 19.144921955919962 1 -7 -4
285 32 2 -0.8916381175367599 -5.237242524240559 8.570095040675021 12.82634782276012 -2 -1 3
375 42 2 -0.9495528790446408 -4.391032226941888 4.636868512931659 19.038109263071213 3 9 2
269 30 2 -0.9843993057999051 -4.42870576273224 7.040055532747844 14.763810934326683 4 7 -3
101 12 1 1.88297604256476 -4.991396334788059 7.52513216742197 11.583738738207963 5 -1 2
288 32 2 -0.9966327248177024 -4.999453501238682 5.928960771615202 16.994814111636018 -5 4 -4
569 64 1 1.896073329687165 -4.861529383655528 8.507780223278296 14.391688265527904 9 -2 6