LAMMPS data file via write_data, version 29 Aug 2024, timestep = 5000, units = real

576 atoms
2 atom types

-3.4684325567895637 24.054010268386662 xlo xhi
2.3190947236318484 18.26648298796077 ylo yhi
1.4415555653542125 19.144022146239923 zlo zhi

Atom Type Labels

1 Si
2 O

Masses

1 28.0855
2 15.999

Atoms # full

366 41 2 -0.9068126939017191 0.4009648997244848 4.367225091398159 5.2391294129017005 -1 2 3
470 53 1 1.835902937334459 2.412972009305011 7.98455164984972 5.753363416588189 -4 4 1
315 35 2 -0.9671323331081344 -0.9196191635975759 6.23050260823846 4.205963765700716 9 -2 0
290 33 1 1.941960655664518 -2.3992623039194907 5.860314231911222 4.6076371467263755 0 2 -1
474 53 2 -0.8893699278733231 1.9085386804764202 9.290640198555625 4.837358637645754 2 -5 -1
175 20 2 -0.9636410358245434 1.237632427613903 6.881000403275441 5.757064208804083 3 -4 -4
377 42 2 -0.940972178304275 0.11163907331680578 9.216688057451965 2.943929427693627 -4 5 -6
75 9 1 1.873204556974331 0.5892194940446354 5.905034409410034 4.6813258105502875 -2 -3 3
402 45 2 -0.9912770314725535 -1.4043897561918985 4.46777199408602 8.503427217913924 4 4 -3
488 55 1 2.045875732362002 -2.26037409427554 5.633515887766408 7.767922305257345 1 1 -1
360 40 2 -0.9913721092995383 1.655214889022469 5.694248862710214 3.526811812999908 1 -2 0
220 25 2 -1.017177510955771 1.0968690489533888 4.220474436597585 8.563817835808628 -6 -3 4
408 46 1 1.911609967862385 2.7901134068902103 5.070849896762207 2.5295980686334794 -1 2 5
46 6 1 2.043194157400844 -0.2613499965920023 3.5503554789264236 9.072332844702622 0 -2 4
124 14 2 -0.9881985036712816 -2.422428735646707 5.4567360509281935 6.172260432817565 -3 -3 2
210 24 1 2.047503003681471 -2.1640363026587095 8.4145830511358 8.898771483629208 1 -1 -5
38 5 1 1.906546873772526 1.916833657541642 8.816659230852657 8.603311944435376 -2 8 -4
314 35 2 -0.9248880739031022 2.7422306959253326 8.531014273708111 7.244692280306104 6 1 7
419 47 2 -1.049991292780631 -1.793412838213395 7.085204563318202 8.183673071947268 -8 -1 -1
306 34 2 -0.9396990175228465 -1.9126211865335059 9.557710613562262 7.810870743999894 -2 0 0
401 45 2 -0.9537535865708959 1.5343480076768028 7.514357047338427 9.482318122886621 -2 -1 -6
118 14 1 1.77570296049659 0.5283716145273263 9.996937364643848 4.308536489084425 4 -2 -1
201 23 1 1.985517496389088 2.6513167007838003 4.103583428962649 8.29800749170249 -2 3 2
364 41 2 -0.9515327267809077 0.6428233765283169 9.601179770827404 8.016739591866411 -5 -5 -1
231 26 2 -0.899207596321852 -0.46179858245751504 9.683668724200599 5.564426880854677 2 1 6
60 7 2 -0.8999141742506643 -0.25439049255063884 2.9491723045144056 3.0854992173759688 5 -1 -4
352 40 1 1.769215436608576 0.35616347615483646 2.902500803263624 4.551810264986452 -1 -9 6
168 19 2 -0.9434346803389 2.7062547981761442 9.711466310680361 9.658674966841279 2 4 0
536 60 2 -0.9441108988168035 -2.9637079887765347 4.577042143405253 3.7800920222613454 1 4 2
123 14 2 -0.9157085948254789 1.8476159039764033 4.09437918185745 1.6628980402461098 1 -2 2
380 43 1 1.891746059964773 -0.5651211535360985 10.164537499885682 7.128562497528245 2 -5 -1
300 34 1 1.857211416540228 0.2836906523634788 3.649565680414309 1.6445360106557716 6 -2 -6
484 54 2 -0.9638285080332939 2.895508340951232 3.168702307956245 7.047666077030157 -4 1 6
199 23 1 1.961181405996754 0.026853742532467084 8.649819123343015 1.4650073627302749 -2 -2 -1
404 45 2 -0.9386844145474531 -3.189045814156245 7.274136616069214 4.517334512467645 6 -3 4
432 48 2 -0.9823319960261223 -0.8277354780725039 7.3185897859156155 1.5490391901206697 -2 4 3
330 37 2 -0.8636100220413618 -3.3422452357572525 10.086556462000772 4.108261561479765 -2 2 -7
249 28 2 -0.9555707437129893 1.8905236444394813 2.544068057876129 4.1531191920007995 2 0 -4
50 6 2 -0.986054992195441 3.242463083852706 6.185795269105655 1.5079327579928443 2 2 -6
392 44 2 -0.9788649128178802 -1.288640187492311 8.477991340093968 10.236958802775842 3 -7 1
40 5 2 -0.9592192566699754 3.421475785552828 3.429371589848343 9.564487304011202 4 -1 6
550 62 1 1.966401791379842 7.0055024892637014 4.071523372246116 9.664700020303574 -5 1 -9
311 35 2 -0.864787951890896 9.401104233725984 8.109055730432633 4.931017607780664 0 -6 0
173 20 1 1.895279597626012 5.692992251904087 4.78738462077353 3.6066137936258 5 -7 3
228 26 1 1.814854091980827 5.061477776040325 9.62137356865659 2.1158586389925267 5 -1 7
464 52 2 -0.9970744317120884 8.838109287784828 6.113655125441513 2.002386404065322 -5 2 3
553 62 2 -1.002115444023851 5.418395363956446 6.794586522875589 6.9266495416693195 -1 5 0
289 33 1 1.984171571451227 9.700969610275346 8.8781062940381 3.4985985789470364 2 -4 -1
186 21 2 -0.9371741632011453 8.81769980597597 2.4850000755645127 4.200980859665298 -7 -1 -4
57 7 1 1.753066465701832 9.70874831268535 7.94305458007857 6.527147450178549 3 5 -1
558 62 2 -0.9767355950914545 8.58379433348845 4.190710586039879 9.696807504135617 3 2 -4
131 15 2 -0.9613654065799498 8.402814636289655 4.115022604048582 6.183401288965184 4 4 1
498 56 1 2.069188357825048 5.257038698415386 7.195105608270676 5.422440684410818 2 5 4
111 13 1 1.830934167063648 7.825662027522458 9.532463203423905 8.546257590288636 0 -3 5
324 36 2 -0.8911254693078768 3.798175974188207 8.602332234445285 2.3135523897824397 2 -1 0
381 43 1 1.854157988182229 10.170294472233541 3.983992394683772 9.453930326654337 -2 -1 -5
422 47 2 -0.8970212047295066 6.132872954925961 4.8024486150062184 8.513743203232497 0 -1 -2
273 31 1 1.884549695652426 9.683696736526928 4.929575419707417 6.661786363736869 -2 -8 6
476 53 2 -0.9783712317281902 3.551023550234027 5.404614872327713 8.124721817336177 1 7 0
411 46 2 -1.011060806410599 3.698390452198036 7.278381504679451 5.187158677803135 6 -8 -7
180 20 2 -0.978414205363777 5.802629844049074 8.722445621771975 5.306745802286963 7 -1 5
107 12 2 -0.8758129246426046 9.236828230463356 6.4499584839971575 7.020599026890192 -1 -1 -2
278 31 2 -0.9717610232043912 5.077318352639404 6.922131358685724 9.5696175986643 1 7 4
239 27 2 -0.9158848975857595 4.098225127912898 4.501739148710346 3.3086663607753444 4 5 6
227 26 1 1.930523266458048 7.6321342019192215 3.0302802421781228 5.226772471342504 1 2 0
493 55 2 -0.9322276047247067 6.346768899984504 3.671295513177192 4.597052202698193 -4 1 1
256 29 2 -1.010298078240929 5.888295004153278 6.1554884100312135 4.42441147791472 2 -1 -3
373 42 2 -0.9992000626132003 6.591973590620487 4.619366754238303 2.26202036644574 -3 3 0
35 4 2 -0.982797459452609 8.545907927071786 9.096947690387154 2.425327712974111 5 4 2
236 27 1 1.93601189826242 5.005538060095946 6.019046676251856 8.261054999794432 2 1 -1
501 56 2 -0.8613882144548147 8.78383721729539 9.047654691449509 7.284132461387981 -5 7 1
420 47 2 -0.9542831532567611 7.327638781327305 8.285599336972913 9.42611389680524 -1 -4 2
163 19 1 1.896062675960425 5.772957773096984 10.23387092568038 4.913433043381817 1 -1 0
27 3 2 -0.9449455044100816 6.6521104839189285 2.507986382087293 9.497301767902256 6 11 0
439 49 2 -0.96930770735183 5.879787342524876 10.280792977513364 3.3162904187863496 -7 1 1
517 58 2 -0.9114993807535925 6.383208012482552 10.230936953989263 8.095911555353904 -4 -4 2
13 2 2 -0.9862935594488268 10.416834113850273 4.202642955030948 7.899238966372092 -1 -4 -2
497 56 1 1.900448478013449 10.35241569227985 6.610771998910514 1.7415353308831136 -1 3 3
570 64 1 1.870522372722863 12.958258294251758 5.525463145112665 2.497828990745048 -6 -4 0
91 11 1 1.872860239538974 12.374700492827596 7.86246354515117 7.937736213534967 7 3 5
162 18 2 -0.8478862604109879 12.932557980575913 5.310831478034118 4.1219956141649075 1 0 -5
370 42 1 1.804221886014221 11.980659318700305 4.331448869162401 4.9853288763992545 4 0 5
170 19 2 -0.9050562099766524 13.522745440693177 6.929636963783731 7.305786887215815 -5 -7 -3
296 33 2 -0.9061288090536284 15.073270785664013 5.252235502209857 5.848186435895873 -9 -4 -4
405 45 2 -0.8408167390606366 15.954798511990967 7.695102370969813 6.382751584382588 5 -2 -3
136 16 1 1.747953608228481 15.078222033302238 6.451256043848656 6.971161286420147 -4 0 2
357 40 2 -0.869534143076811 15.857601359094746 5.785891984405346 8.225727923525561 2 4 5
295 33 2 -0.8975813121814904 15.978555621982649 8.076832277601806 3.667240723908852 -6 1 2
45 5 2 -0.9416228091977493 13.022314743453501 9.228118561248987 8.619528108075823 -2 -3 -5
479 54 1 1.842326638942791 14.626605253323296 3.7131059229119785 6.076565224017353 0 -2 1
171 19 2 -0.9103439944096069 13.01932565170346 3.655884674131955 6.000471341422195 3 -2 3
382 43 2 -0.8964669366698257 11.368547063067368 8.244106125034001 6.816871925480132 -5 5 -5
112 13 2 -0.9769141870358676 11.458269943837625 7.033471251343809 9.001879733978491 -7 5 -7
59 7 2 -0.8816548876895791 16.342599179980233 4.081810519190006 3.3119129966010012 -5 -1 3
487 55 1 1.797325583353462 15.950818990970271 4.218937989680639 8.605662724954957 4 6 4
104 12 2 -0.9663717493642466 15.170671305673837 3.3142075820281915 7.48450182410426 0 -1 4
320 36 2 -0.9189784571300433 11.396588003244668 3.108486402166776 4.085644827641075 -8 -1 -5
43 5 2 -0.9776534588173308 13.473496189106692 6.996498905882215 2.1746838552823524 -6 3 -5
55 7 1 1.874113084707202 16.520636523140347 7.906022293772341 2.1332376189337303 -2 -2 1
155 18 1 1.82006178010975 16.745755255257528 8.30827043886089 5.089000050839843 -4 -1 0
284 32 2 -0.9479944103477157 11.362614158714516 5.481967197067792 2.1884786659605924 1 0 -1
49 6 2 -0.9622481119613389 16.858528302543483 6.404509932803273 1.8640664503908888 1 -3 0
5 1 2 -0.9854180965991204 10.767862359561876 5.1887839868930605 5.552165383251889 4 9 -1
446 50 2 -0.9653663897736695 10.622013969911771 7.886684153935983 2.7117941569660324 0 -1 3
468 52 2 -0.847870296424924 15.140792449450172 2.6426083398583144 4.952800406351006 6 -3 9
84 10 1 1.807017774106962 16.494403056135965 2.6233933455738097 4.021453693535342 6 -3 3
549 61 2 -0.9597441983855697 16.900366032932766 9.921356148917006 5.2149937842925524 1 2 2
232 26 2 -0.9825958803088241 15.285881251994757 4.135120149354748 10.009149371341872 -4 -2 0
216 24 2 -0.8945252570310332 10.62115193068788 2.4021585196808473 9.689730738624167 -6 7 -7
418 47 2 -0.9555472981985016 13.245487875554167 2.5772116083311674 9.962100947908516 -5 2 1
477 53 2 -0.9545599933868625 10.370178583384439 10.270438607751508 3.8902390018223802 2 8 3
492 55 2 -0.9890445043216254 13.701536562100754 4.290604659362489 1.8008180582806612 4 0 -2
257 29 2 -1.021599730883055 19.720547055846843 2.556939452340631 3.1088317077965044 -9 0 -2
198 22 2 -0.913785643257682 23.06533917690514 8.267755119774579 2.5399719652123744 5 -3 0
126 14 2 -0.9663597836825359 22.179122874510234 4.051961040631027 4.213167740124479 -5 6 4
342 38 2 -0.9308106468403802 17.8183734185395 2.5051097880030135 4.921885804271769 -6 -3 5
302 34 2 -0.9721628803132331 21.215326767909268 9.141411585545306 9.246527323449197 -3 -3 5
268 30 2 -0.9282386263972039 20.502446635293296 5.796714972623667 5.284029484413831 4 2 4
417 47 1 1.858910180151481 19.06416457509794 9.665323851325772 2.7744065603024985 1 3 5
374 42 2 -0.921963879731357 22.09091899406149 8.804281287145558 4.932400678530893 -3 0 -6
4 1 2 -0.9042357723738899 22.027932194120687 4.547329046366324 6.792892348791739 0 -2 5
36 4 2 -0.9565932517826082 21.57867331034889 4.761701068693465 9.3784496592632 2 2 2
237 27 1 1.691272658876337 17.43712761783479 5.046655325224573 2.543453026968584 -8 4 4
137 16 1 1.918721870630938 22.219768186936975 5.483366207222466 8.07284741158548 1 2 -1
120 14 1 1.933141096970806 23.52575536071538 3.350479980137422 3.6840194371890895 -5 5 -5
509 57 2 -0.8739304903214962 18.104186530475445 7.3655402807660035 4.909441607696976 -2 4 -3
214 24 2 -0.9243721262683827 19.259628396906187 7.43202916367475 8.751770420292996 7 -1 6
331 37 2 -0.534435371425501 20.33172175916146 9.428950550525133 1.7720152941066318 -3 1 -3
260 29 2 -0.9761461089222062 21.660968451672538 7.002232903800445 7.882496592861391 -2 -1 2
61 7 2 -0.9716387229491559 23.805827952575314 5.482125015234175 8.35242141906841 -7 4 -1
530 59 2 -1.010002990088013 17.819742260439256 8.817189207135613 2.335001213475574 1 4 -6
158 18 2 -0.9680091271377541 18.56278621521851 5.239596325171316 3.7271515414931953 7 4 -4
436 49 2 -0.8734150327307281 20.349693611324035 9.102485862895902 6.8545160279689155 -3 -3 11
574 64 2 -0.9398870774545505 19.608305979186305 9.289445824209906 4.236982088357701 1 -1 0
159 18 2 -1.024159907857711 23.830361410750484 8.497418631306564 9.287765351241617 1 2 -14
354 40 1 1.824528826023194 20.770837636220755 9.62272050297652 5.322762273214234 -1 4 -1
425 48 1 1.900471259627255 21.150918397350708 4.347262231053149 5.417177317291719 -6 3 -1
110 13 1 1.893362834610735 20.574182520944653 8.134930433866472 8.141866785058621 1 3 -5
542 61 1 1.958793046581871 22.569108843969637 9.111415493783392 10.065629860764112 -1 -1 -1
16 2 2 -0.9442624150370011 20.154531551730614 3.1486647126848 5.545374719303724 -1 7 -2
242 27 2 -0.9003766704820583 20.130459563251762 6.857831081024135 2.928640021146122 -4 0 3
332 37 2 -0.9436990033602416 23.289203612375466 2.7795398998990968 2.195971024697948 -3 0 -2
146 17 1 1.766395366586236 19.35443925585254 6.4539703419022985 4.316759564492163 2 1 -7
531 59 2 -0.9043910001102629 17.475089946437357 3.6430386551356206 8.661239847926094 2 4 5
507 57 1 1.802962359604073 23.466934923969987 8.565586499712664 4.081890494987322 -4 -5 6
424 48 1 1.882999937872003 19.725503422645758 3.3637396962484383 1.7149234407415241 -4 -8 -1
349 39 2 -0.9288295630086264 18.275852391203465 4.057336085621982 1.54515571111871 -6 4 6
539 60 2 -0.9482631494135058 17.21922688883177 8.153684059228604 10.209968836641888 -3 -3 -2
179 20 2 -0.8914684170399412 20.686909571660863 4.653182621759135 1.477112393328546 1 1 -5
280 32 1 1.910224766828745 18.57549002300653 7.325242237018285 10.22096443747724 3 -3 -4
391 44 2 -0.856246300208006 1.8136753622191035 13.536155040667822 8.556898205211162 -3 3 -7
274 31 2 -0.861508548069825 -0.0074751572341758 15.54187694005849 7.482181549132369 11 2 1
156 18 1 1.73293345172415 1.559918112500224 12.319523705829774 2.7403712751669795 1 4 -5
575 64 2 -0.9027230307815991 -0.4600200091553641 14.516194394492192 4.355363391020777 4 4 -5
299 34 1 1.815291235617347 0.1987975188706641 17.09907692412889 7.116345306774496 3 -1 2
554 62 2 -0.949431906851545 1.7962990112348232 16.970213397912406 7.180098278325163 3 -7 -2
3 1 1 1.883114149362076 -1.6417604291422199 13.009052048453245 7.5585256794190565 5 -7 -4
250 28 2 -0.8257649833801805 -0.7871467395818263 13.678073721353321 8.762701190029116 -3 -2 5
29 4 1 1.922029947569894 -2.011795749289836 14.102029954020718 4.786238262573695 -4 4 -2
53 6 2 -0.987019281226604 1.6979599518714785 15.954193139153656 3.757466840870911 -1 -4 -2
307 35 1 1.857741061024159 0.5306660520079425 15.096097212034742 3.179507524347943 0 0 -2
140 16 2 -1.021633198422557 -2.0478906015217286 13.920325591872519 6.323933379626346 -4 1 6
144 16 2 -0.8832369483608928 0.6398670985526618 11.563463196039162 3.92214895752474 1 1 6
386 43 2 -0.933487210232108 -0.7200122406933334 11.769163417153194 7.169947872488366 4 -1 -4
190 22 1 1.737337130506645 0.5646299451423271 14.594164504126027 8.724577956396821 5 1 -3
350 39 2 -0.9021466659413887 1.2585746261861344 13.87923333524169 2.422250572157619 -6 1 4
208 24 1 1.917114448332919 2.7534121022821116 17.18269101797142 3.91704392326215 2 2 2
211 24 2 -0.8872400474557997 2.8407697552221896 12.900689964465709 6.211818522299854 3 1 2
94 11 2 -0.9096461501003998 -0.4625151514785162 15.90543108558207 2.1322748416890045 6 1 0
70 8 2 -0.9130821818845984 2.9830866241954217 12.309465982329808 3.5525058959369678 5 -2 8
442 50 1 1.817807161374286 3.1945823938318103 13.16982990973025 7.778308750442113 0 -1 -3
189 21 2 -0.9004207139753518 -0.17856269152741477 17.72259866545118 5.671234081894913 -2 1 0
221 25 2 -0.9320698025183032 -2.68054320478838 12.879491316277143 3.9229938096765706 0 -3 1
224 25 2 -0.9219725422859566 -2.3807522850137155 11.053807517094832 2.0437576726813913 0 -1 0
86 10 2 -0.940052673034093 -2.9314653143991194 15.376234500299805 4.5192500884451405 -7 8 2
116 13 2 -0.9363502336336812 -3.0531330443104734 16.560920865103565 9.369548496626876 2 0 6
196 22 2 -0.9374189418405424 -3.0943577274955985 12.520774023307599 8.14062481235899 4 6 -1
212 24 2 -0.931657435250723 -0.2812104205429806 18.068355359583215 8.37330296400495 -3 -2 -6
481 54 2 -0.8685822993372618 0.7752634486790067 15.379131039848186 10.129719025835362 0 4 2
344 39 1 1.821213210935706 -3.326262992484915 11.514241070107243 3.2520817282378385 1 0 3
523 59 1 1.817769516962954 3.2458909975141754 17.568505391736007 6.80971881041607 -2 -2 -2
76 9 2 -0.9580330470732014 -3.433495446313292 16.726298652442658 6.783071199662608 4 4 -4
197 22 2 -0.9240824412792934 -3.4643038106876607 18.08142728677619 4.599003619166884 2 -1 6
448 50 2 -0.9341940580154285 3.77129603376709 17.3121693641221 2.6757452529054717 -2 -12 6
106 12 2 -0.9019341063955645 3.6203885814287613 17.064678603526286 5.242827281405198 -2 8 -4
176 20 2 -1.023002620450727 6.245506924643228 15.683249595041893 7.3016496248918745 5 -2 -5
226 26 1 2.056203397216544 5.03787938246573 15.70918771990685 8.263898342839827 3 2 0
414 46 2 -0.971592118897979 4.728104558271191 13.785246556765426 4.819944474862613 8 1 -1
277 31 2 -1.012852093119792 8.68555966042773 10.547054704424948 9.352966159480038 -2 2 -6
65 8 1 1.765949782927988 5.729828812798253 11.65759917885218 8.44284016573944 4 -4 -6
413 46 2 -0.9531859615044783 6.558109091075229 15.507818393119184 4.682974638363369 3 2 1
526 59 2 -0.8253462020348873 7.1865313299518085 10.85917856705207 5.508954920351155 4 -7 2
73 9 1 1.424957859647841 7.771789797725269 16.24283193742286 1.8662890269119203 -7 1 2
252 28 2 -1.0174738786432 8.522314086493356 15.261621655875434 6.407384306773499 3 -6 -1
166 19 2 -1.013756095673115 4.063731640523949 14.513152651509621 8.109332296781282 4 -5 3
337 38 2 -0.9699214249817418 7.245294807303564 13.159649453393346 4.780481610756315 -6 1 -1
34 4 2 -0.9342383145587017 9.14933588043194 14.258728563878723 8.909124680507333 -5 4 -5
540 60 2 -0.8036515512777884 8.493025918153442 15.012692441687427 2.6765638752371723 -1 9 13
71 8 2 -0.9520277860523825 5.626524651948078 15.950466865005886 9.765269934740859 7 -2 -6
496 56 1 1.957950354097054 10.136069582019609 10.980447273554297 9.906445155484688 -4 0 -4
499 56 2 -0.8592575896818896 6.363289516065196 17.141677405546446 2.0412575529645016 3 -8 1
365 41 2 -0.9903535898398643 4.287423169280413 17.072009406246345 7.904614969354938 1 0 -4
453 51 1 1.707360447878643 7.502265854966904 12.364250455433815 6.131819510427604 -6 0 3
431 48 2 -0.8572128866373954 8.919476789448654 12.796336518784283 6.801594230038918 -2 -6 7
449 50 2 -0.9469807280454974 5.934601300276274 13.880444968400049 2.5519499217711714 -5 2 -2
438 49 2 -1.012319804260142 4.556283577650204 11.144048219210084 5.319557850793049 4 -4 -2
14 2 2 -0.8651318440897896 4.085191185241199 11.898564891191679 8.250013267186635 -3 1 2
335 38 1 1.936508084673109 6.148985695962107 14.08002063940543 4.126306040602682 2 7 0
506 57 1 1.829406243090308 3.776858315805378 12.506429832877 4.937681187550399 -2 -2 0
336 38 1 1.960312752130142 7.1960752263279275 16.04865144399307 6.073468677077036 -1 -5 -3
421 47 2 -0.9629998304172099 7.276496524041129 17.67661046267392 6.013026055565368 -1 -3 3
26 3 2 -0.9708896154734914 6.281139362113926 12.142759960360301 9.859424337830989 -1 3 -5
410 46 2 -0.8924424833001944 6.429462381555275 12.67854417458004 7.3266752634379255 4 -3 3
460 52 1 1.800480426533635 9.72091435576537 13.84350922026831 2.3366831404446016 5 0 -3
11 2 1 1.837304490520211 9.392461143116348 14.305329437572581 7.297278079426823 3 7 -3
154 18 1 1.819732302732111 4.847700117020132 17.232391347625295 1.503681927625754 0 4 2
491 55 2 -0.9060534667527429 10.517421924428735 13.068299885038332 3.5203024032957666 -6 1 0
72 8 2 -0.9632473127096645 15.294586266779172 15.756028137040001 6.35005339447281 0 -3 -4
191 22 1 1.929292150514859 14.129113208100565 14.935276145996173 5.629453660659527 -3 -1 -3
304 34 2 -0.9832042254328494 13.951024505808784 13.472535809648441 6.2474605341358025 6 3 0
67 8 2 -0.93589409625916 12.737749080234929 15.709152274684755 5.697574493347544 -3 -3 -5
384 43 2 -0.9387275598469343 12.221270760312214 11.963664668029697 4.9568986379887665 7 -1 2
533 60 1 2.004550143426493 13.587691406061472 12.007451952391055 5.772932848657929 10 -7 3
238 27 2 -0.9453386683313794 14.659547700328778 14.57599898962902 4.131596022913655 3 -6 1
12 2 1 1.889151722282833 11.600171177111502 16.229711375704348 6.715649150927771 -2 2 1
58 7 2 -0.9260755535417657 12.185293610837675 17.10982837944245 7.95668103686482 2 1 1
235 27 1 1.892118504272499 14.251145013242462 14.745165655744486 2.5838708157227863 -6 6 -6
451 51 1 1.932925783046576 16.47382860502978 11.438193236946478 5.085846145894275 4 -1 2
423 47 2 -0.9517664036104875 14.837172909475987 11.443951858738274 4.933338084571079 -1 6 6
412 46 2 -0.9484847903325812 16.000343470750778 14.882720183199254 8.79309687469014 2 -1 -3
200 23 1 1.914313774439582 11.535554216953086 16.183256543585628 2.2529415465451983 0 3 -2
167 19 2 -0.901533508249565 10.947463219703483 14.86505912827326 7.221564425670876 -4 3 1
327 37 1 1.895014409406634 11.251262909154308 11.636788613403215 3.6902861493613757 1 0 6
372 42 1 1.860538178617128 12.045863689414103 17.611474057160777 9.4593760645534 5 5 -2
387 43 2 -1.017645622082787 16.623460718642633 17.422279808762983 2.9465694848907695 2 3 -9
80 9 2 -0.9598857001845533 12.973835652086022 15.688227066607958 2.738211604940036 -7 1 4
441 49 2 -0.9594837242035816 12.058099966552126 11.345672576041295 2.341727916118346 -1 0 -3
103 12 2 -0.9487080114720595 13.575310541929072 11.560973653180035 9.770764060319134 4 7 -8
303 34 2 -0.9712600975227962 13.307824681855228 11.238169754944682 7.130000982159962 6 -1 4
2 1 1 1.937871421432012 16.443126933570724 15.657660002898606 7.451056554316222 0 1 0
456 51 2 -0.9382540307738199 10.631058712234973 17.20926356802426 5.830001682340671 -4 -3 3
532 60 1 1.894498649973452 16.682372098038798 13.8208131174109 9.857275834712924 5 0 -3
426 48 1 1.959459255988037 12.77081906573756 10.800371899537662 8.563535294749666 0 -6 6
403 45 2 -0.9113489005360045 10.600139670421656 16.59911046525024 3.4786491798588464 -2 -2 -5
527 59 2 -0.9831086282460556 11.234386385661674 11.091922015902199 8.75044702699611 -4 -1 0
157 18 2 -0.9820052418311209 16.9543337321498 12.20624122774623 6.404750772141655 -3 -2 1
561 63 1 1.942546285358197 15.927353869407609 16.993086174725736 1.5960746908474701 -2 2 2
400 45 2 -0.9773739598239036 15.278606352892519 15.51582688140578 1.636256735096634 2 4 4
471 53 1 1.826553960047948 10.323476954886852 17.887873646048842 4.411972847717932 1 0 -3
6 1 2 -0.926998783355551 14.006780603500866 13.441611139896601 1.6728818154027956 -2 1 -8
482 54 2 -0.8900216649421229 10.877350861866148 14.734506369486574 1.658598191166075 9 6 3
188 21 2 -0.9768160877639758 16.994945608805637 12.215119405057678 3.7686537960737114 -1 0 1
473 53 2 -0.8317927209479729 12.29504337474263 16.145718989669174 10.163792474040992 -2 -2 1
555 62 2 -0.9586334858331873 17.18410352403488 17.00288241948421 7.846564650744803 -2 -4 4
169 19 2 -0.9396154250093556 18.67756405397718 13.955103996452106 2.426922001618985 -3 -4 3
465 52 2 -0.9550863175303366 19.51402589649193 12.752527800323953 6.914665451537071 9 -3 8
282 32 1 1.877825164134759 17.98627607573873 13.082991479419189 7.274577965053521 -1 2 -2
390 44 1 1.89512873850357 19.324200011110115 18.087402105730252 4.595848718152709 5 0 -1
495 55 2 -0.890734495571719 17.594803260496732 14.633661248444806 6.935752051487711 -1 5 6
182 21 1 1.829288557593178 20.909309761101973 15.505973605151741 4.45610789734102 -5 -2 3
275 31 2 -0.8647240702841587 19.65154623924429 16.49804721284088 4.907006539559546 -1 3 1
301 34 2 -1.108448899755138 23.150552704646493 14.723903646668408 8.150841284054174 -3 -2 1
485 54 2 -0.9148484942759336 20.87792437339693 11.252387311807244 5.390196552395425 -2 -1 -2
165 19 1 2.015055990864846 22.97805633116443 13.197337218276786 7.954474602435661 1 -1 3
122 14 2 -0.9559813943081421 20.98365017787321 15.331787603252785 2.8614094039612543 -5 -1 0
192 22 1 1.879924179445815 23.786126412246645 16.58595940435643 5.272216898248242 1 3 2
93 11 1 1.8824327622096 20.02443927295662 14.561901338777762 1.7857124698102345 -2 0 -1
443 50 1 1.944448371864314 20.825468706787106 12.750088733216902 6.012340099424907 3 3 2
203 23 2 -1.001508525540681 22.00247210687847 12.53452843768633 8.991673556563924 3 -4 2
557 62 2 -0.97572349556063 22.79267740955096 11.82016651089642 2.5517118803161694 -1 -1 3
271 31 1 1.953611489050401 23.470530254233324 16.238271083459324 8.205535228997222 4 -2 -4
77 9 2 -0.508724672046861 20.150902877637876 15.384906808691902 8.642422256311175 -4 -7 -9
132 15 2 -0.9003605082167274 17.69111892854685 13.049645169428153 8.894174755415408 -2 -1 -3
490 55 2 -0.9568559740956935 20.709458667611585 14.021554932801557 5.02996561810043 3 -8 0
33 4 2 -0.8783821036368857 22.119120363716 17.10790534187269 8.562265159746776 0 -3 -12
461 52 1 1.944120212847356 17.9654259249278 12.483692885538854 2.505220965726724 1 -9 3
92 11 1 1.619586143849678 20.645264851757787 16.808706639090033 9.198670834887775 -1 -2 0
347 39 2 -0.9827000734351293 22.34310349655 12.878562413938688 6.529484590423691 3 -4 -5
69 8 2 -0.779150409695486 19.591576379606174 17.915861092287525 8.41373369659987 3 0 -3
494 55 2 -0.9486934371655713 22.203142350243084 16.261662047693395 5.083157750131665 -2 -4 -5
564 63 2 -0.9838261899188516 18.942293944729265 11.239525012770134 2.6929512307504444 -7 6 4
525 59 1 1.85894700231064 17.994931536547092 18.059583528082513 8.715759692228268 1 -7 2
385 43 2 -0.9746597416849465 17.884520859497037 17.64026770813977 10.247477612040903 -4 1 1
269 30 2 -0.9843156310663036 -0.8497875659020147 6.881357751362055 14.619713315186111 4 7 -3
95 11 2 -0.9658739814886521 1.2187952900777868 5.891825791870307 16.18357657871131 11 4 -9
287 32 2 -1.0525978846054 -0.7312753369896741 4.415364442706643 15.425973776104641 1 2 -10
345 39 1 1.805270454689881 1.704907459346881 7.196178182089422 11.059127666272605 -2 5 -3
83 10 1 1.96885842201333 -0.310091707445709 5.912800226644816 15.739815311060905 -3 -2 -1
101 12 1 1.942156163138001 -1.1644245496658079 7.591193905708293 11.56589925688981 5 -1 2
288 32 2 -0.9434332091320438 -1.2712028076755355 6.424580867296624 16.949932003278242 -5 4 -4
195 22 2 -0.9336912576080295 0.2757101145289682 6.982241617504295 11.856932421714633 -6 -5 -3
230 26 2 -0.9174602884414649 2.515698482666827 5.8619493841520764 11.326454190944943 0 -1 3
397 45 1 1.932970153623807 2.5761920749731786 5.242900861037828 15.50352359943951 5 -2 3
285 32 2 -0.9486200535588677 -1.4610425667481337 8.54288214144685 12.802323686551599 -2 -1 3
321 36 2 -0.9867555064904522 -2.5875553731934255 3.9745746749071857 11.956220760814418 4 0 2
152 17 2 -1.023281538459988 2.376438123549364 5.2077010028694986 13.953414635512313 0 -3 0
563 63 2 -0.9520316007761559 2.766904326349932 8.20222691886066 11.69585843573634 7 1 0
569 64 1 1.904090054268529 -1.2332803994547668 8.413889128896068 14.377030255326707 9 -2 6
328 37 2 -1.029932584958105 -2.204516618938139 6.408283556176186 11.352589189891477 6 3 -6
41 5 2 -0.9300810296441934 -2.6358870700933865 8.866112537557688 15.046756870397195 0 -5 8
264 30 1 2.008399668374071 -1.3933449467900005 2.8599124113746575 11.766973866878356 -3 -6 -1
524 59 1 1.949785740455445 -1.5234921670298878 6.094001283273079 18.53192058666677 1 -10 2
281 32 1 2.101550050764751 -0.8904662223385378 3.0361199038696505 14.696062350914104 3 6 -2
369 41 2 -0.9353313684342326 -0.001733666500701947 9.333730574569294 14.979338850083217 5 -1 0
98 11 2 -0.9123078680034129 -0.8622568877116072 9.657149104052241 18.258709525084114 -10 -2 -3
409 46 2 -0.9134710668687802 2.960934413642633 3.8194287095955426 16.16387991867932 4 5 3
322 36 2 -1.000318841548977 -0.6069883655258974 2.936683428816356 13.178964308987759 5 -10 4
521 58 2 -1.001276981060713 -0.42591123380591833 3.3656016610244004 10.645977763413832 4 1 5
100 12 1 1.987800220956015 -3.237542851005701 5.430364960004865 12.040990522781913 -2 6 -2
516 58 1 1.966491129154248 3.1935579364743143 5.091567528048225 12.595345712362217 -6 0 0
151 17 2 -0.957469091884532 1.481861290632029 8.190288333039327 18.77166428096755 1 -7 -4
375 42 2 -0.9987734196415652 -0.7571889349209187 4.734644793128447 18.86963547729934 3 9 2
145 17 1 1.842135900705827 3.064674014302673 7.728508431075103 18.81587222041275 -1 0 8
455 51 2 -1.006721775172958 -2.437150890214842 2.7428712542346134 14.918518161909489 8 6 1
463 52 2 -0.9476822074005787 3.1952739894154387 3.541378510458443 12.123163007976789 -1 -4 -2
202 23 2 -0.9500170392348021 0.3097033145052319 2.5327122458560574 18.175763350886633 3 5 3
472 53 2 -0.9442962359509128 -3.3668534392206513 2.721740670690499 17.4197415918726 -7 3 -3
187 21 2 -0.9404706461185961 -3.052627591599831 6.307471497563941 18.898198216353634 0 1 3
396 44 2 -1.011540952167324 -3.442392473767844 5.765893075229748 13.588908299782371 -1 -7 8
559 63 1 1.809597481339532 6.050191460487861 7.973552693030691 10.33560457996162 7 -2 1
309 35 1 1.921239031765294 3.5340406276649734 2.583362869184229 10.941428120410583 -5 0 -1
529 59 2 -0.9688969460407316 6.235157601563525 8.860962063925319 19.02494064253961 0 -1 0
406 46 1 1.875385926112405 3.523687617715618 9.48777719891619 10.995749551805158 6 2 7
359 40 2 -1.018712574107911 7.259927588688493 5.777374157411867 17.77610305167927 7 -9 0
399 45 1 1.79002569872867 8.483516735334806 5.375779617330684 14.452880161708274 -6 -2 3
486 54 2 -0.940232871461786 5.081545567043458 9.236944751010073 10.643558540179173 -3 -8 -4
248 28 2 -1.041289243076942 6.036874146648506 7.456583017980217 16.430556999833957 -2 2 3