LAMMPS data file via write_data, version 29 Aug 2024, timestep = 5000, units = real

576 atoms
2 atom types

-3.4872500582335757 24.07282776983098 xlo xhi
2.312924825819266 18.27265288577346 ylo yhi
1.3889210930828728 19.196656618511554 zlo zhi

Atom Type Labels

1 Si
2 O

Masses

1 28.0855
2 15.999

Atoms # full

366 41 2 -0.941062545457702 0.46678505294348005 4.216122823934265 5.176032320306439 -1 2 3
470 53 1 1.829675194545378 2.3511325327828674 7.898852031782176 5.79558309630493 -4 4 1
315 35 2 -0.9052003389368322 -0.8241960392773215 6.137033768759773 4.171203818511882 9 -2 0
290 33 1 1.814698758797816 -2.3728187740173055 5.887073363764394 4.656316192827676 0 2 -1
474 53 2 -0.9421347547894466 1.921774243080315 9.146852576369179 4.912061914619812 2 -5 -1
175 20 2 -0.9139883062864724 1.1054999551933573 6.837407395899989 5.839851626504486 3 -4 -4
377 42 2 -0.9378249940812289 0.08636065638228452 9.118197379748418 3.041070535096138 -4 5 -6
75 9 1 1.816350017514567 0.6251743489310488 5.747792227166666 4.716867762261792 -2 -3 3
402 45 2 -0.9372645925959953 -1.3870630207706829 4.35075991846112 8.52452453106315 4 4 -3
488 55 1 2.04747247571476 -2.2591733814958506 5.510513387644679 7.788211389484636 1 1 -1
360 40 2 -0.9021908395859084 1.7956761466425597 5.777672952063371 3.5768137404608846 1 -2 0
220 25 2 -0.935355594735466 1.2587401847708017 4.272081676342719 8.816423241894746 -6 -3 4
408 46 1 1.810881033687767 2.8052371247208807 5.073866831264005 2.4578403990596307 -1 2 5
46 6 1 1.862399339066179 -0.11403013098272208 3.508813095429234 9.063401023923866 0 -2 4
124 14 2 -0.9901923298219422 -2.269346951251898 5.414375839932868 6.224957430234785 -3 -3 2
210 24 1 1.867321867171512 -2.248085787019294 8.295807839184581 8.896961597234755 1 -1 -5
38 5 1 1.89624832027416 1.8580113087902088 8.798227245134992 8.55797097525542 -2 8 -4
314 35 2 -0.9232812601363131 2.7258114614656943 8.376044641501686 7.2721266216889315 6 1 7
419 47 2 -0.9659365219331913 -1.690165825712098 6.939895035468962 8.200438059216214 -8 -1 -1
306 34 2 -0.9464094043517195 -2.0515691995762824 9.454882006334195 7.78286371170121 -2 0 0
401 45 2 -0.9524512202658257 1.5745634847225967 7.545592076870197 9.592163258525702 -2 -1 -6
118 14 1 1.890198513343355 0.5071552151891612 9.783235098974512 4.377707152504099 4 -2 -1
201 23 1 1.806867261041266 2.7779063940191904 3.93571066347876 8.37983645199816 -2 3 2
364 41 2 -0.9920002009966042 0.524020000031304 9.466879792514348 7.924640436968288 -5 -5 -1
231 26 2 -0.9646431201917119 -0.5644537172951867 9.530100139350552 5.575967689302407 2 1 6
60 7 2 -0.9277616900275618 -0.22508088186806852 2.8161218228633382 3.112919634815708 5 -1 -4
352 40 1 1.735626533217898 0.3910191467908768 2.7423173292542335 4.621967465254636 -1 -9 6
168 19 2 -0.889784922094686 2.6859003168451387 9.830359039451771 9.457644300973922 2 4 0
536 60 2 -0.8774164245798157 -2.897298786208949 4.559904556676757 3.817661541080902 1 4 2
123 14 2 -0.9223145184873586 1.705065705459571 4.042721079885771 1.83426578939739 1 -2 2
380 43 1 1.981018552899856 -0.6883975979516332 9.991257484564711 7.082213634025739 2 -5 -1
300 34 1 1.981942899368738 0.19699176040170263 3.4495158006252087 1.708772448644993 6 -2 -6
249 28 2 -0.8857007745968317 1.9616760729096008 2.426584552469507 4.114132472897851 2 0 -4
199 23 1 1.818165726724252 -0.007715485060483029 8.724609636890548 1.4341200336191806 -2 -2 -1
404 45 2 -0.909146117590796 -3.2663026476527515 7.2213329777214055 4.582752418614385 6 -3 4
484 54 2 -0.9220341155550148 2.9531655238232135 3.174079809404631 6.949430507933353 -4 1 6
392 44 2 -0.9466831564053246 -1.3881420524723338 8.575679485186523 10.214428324081288 3 -7 1
40 5 2 -0.9711384416551448 3.4471487991900034 3.128561475322922 9.635336549479877 4 -1 6
550 62 1 2.060787694153279 7.040005813676068 4.025570750868113 9.747487596420418 -5 1 -9
311 35 2 -0.8709199804637705 9.415714462476513 8.12673135461746 4.930402008403464 0 -6 0
173 20 1 1.878528783574924 5.841489537304083 4.746048271426142 3.4966166237807155 5 -7 3
228 26 1 1.838083381300557 4.993325099957277 9.746714861655184 2.044666866891293 5 -1 7
464 52 2 -0.9160546290511088 8.84548913271181 6.100855487321766 1.9440977265262245 -5 2 3
553 62 2 -0.9969685902840292 5.42241839258104 6.420125899499646 6.743253870234729 -1 5 0
289 33 1 1.833643728843735 9.657151178239065 8.919846524525163 3.4998701154945313 2 -4 -1
57 7 1 1.933884622546319 9.619531927565474 7.9444755842820465 6.57987378268688 3 5 -1
558 62 2 -0.9954065108751972 8.603003403178812 3.7968980437199624 9.603746972901648 3 2 -4
131 15 2 -0.9360362490763395 8.550624431685803 3.9688936186955006 6.342760544334378 4 4 1
498 56 1 2.000092615122904 5.276600295598914 7.1016608065570574 5.326879781385109 2 5 4
111 13 1 1.820701382610401 7.711438298287154 9.554183913196342 8.596022146865657 0 -3 5
324 36 2 -0.8739303249746181 3.838063215176958 8.58664991598151 2.249887509786308 2 -1 0
381 43 1 1.927832503288707 10.178178157792718 3.834543095379311 9.501260652706772 -2 -1 -5
422 47 2 -1.021163564891634 6.3291130945965755 5.047054081478567 8.737091909560592 0 -1 -2
273 31 1 2.032594050600361 9.768833318562113 4.971509551303729 6.750032460859568 -2 -8 6
476 53 2 -0.9120961949258136 3.6110956794658007 5.27547788562015 8.177640507508116 1 7 0
411 46 2 -0.908937612455783 3.6318898191437627 7.169799578857375 5.143483446163554 6 -8 -7
180 20 2 -0.9509323172899364 5.87778440449962 8.565610793828329 5.246784243276798 7 -1 5
107 12 2 -0.9732620746253413 9.217729410493197 6.44377298704949 6.956471452511815 -1 -1 -2
278 31 2 -1.00435925214822 4.998138678838224 7.189557265218538 9.170292214571653 1 7 4
239 27 2 -0.8471511053897632 4.183873658266275 4.49480218041853 3.0942228453994276 4 5 6
227 26 1 1.926127781452809 7.8285133994648906 2.9581038621957836 5.299414919047487 1 2 0
493 55 2 -0.9253504502372556 6.681593773364295 3.8069895820264716 4.5411317892291585 -4 1 1
256 29 2 -0.9583873345831986 5.800943475012087 6.209791779135011 4.133986768915193 2 -1 -3
373 42 2 -0.9359523104453507 6.696354477155964 4.647517342121683 2.1609615928321744 -3 3 0
35 4 2 -0.9464024758170024 8.50761751159466 9.371955285431014 2.520145235331364 5 4 2
236 27 1 1.98030223852253 5.116952791724454 5.943221734532967 8.21880534781225 2 1 -1
501 56 2 -0.922782202823911 8.649080900074528 8.944533303317453 7.426856993665263 -5 7 1
420 47 2 -0.9720506362672682 7.193402253831181 8.381082614932385 9.590074363378536 -1 -4 2
27 3 2 -0.9623267398070924 6.337470125924883 2.6095123220929426 9.54953438294292 6 11 0
163 19 1 1.86084270068122 5.801123049402516 10.19784688363583 4.958605527536605 1 -1 0
186 21 2 -0.9889311744672894 9.023044634112187 2.378467370858277 4.435871954486826 -7 -1 -4
559 63 1 1.912591012511261 5.8609048533464225 7.954209927648303 10.281428759157714 7 -2 1
497 56 1 1.679119378569791 10.3710244800897 6.634023197198148 1.6245919622997913 -1 3 3
13 2 2 -1.022154089763934 10.43480321696008 4.384404872736331 8.013375225018375 -1 -4 -2
570 64 1 1.880381950243983 12.987730105239168 5.588542015832598 2.450721711651876 -6 -4 0
91 11 1 1.947668822666107 12.38115236256524 7.614307323162244 7.9359415305311725 7 3 5
162 18 2 -0.9970228291494944 12.83372226569191 5.245817288247897 3.974341300332606 1 0 -5
370 42 1 2.040400169490423 12.022853827433599 4.315528347180976 4.901819687597624 4 0 5
170 19 2 -0.9444013353095176 13.462307897602207 6.656965486163537 7.251789665486906 -5 -7 -3
296 33 2 -0.9365127313604635 15.09877069122618 5.191698160310871 5.809382184388496 -9 -4 -4
405 45 2 -0.9101213327055511 15.791458304313375 7.767842574574584 6.202309093830174 5 -2 -3
136 16 1 1.819508279138212 15.018992551743244 6.509645876226828 6.822544806782397 -4 0 2
357 40 2 -0.888693255501073 15.768981894161731 5.923597072067803 8.100745217304143 2 4 5
295 33 2 -0.9069856893647303 16.077111654505217 7.943272302844909 3.6711913520806942 -6 1 2
45 5 2 -0.9393369227058914 13.061189611192427 9.027943118757115 8.346471357125525 -2 -3 -5
479 54 1 1.878803175013707 14.558048000487814 3.73825506536922 6.143435805318106 0 -2 1
171 19 2 -0.9632193908892521 12.983466081713592 3.8482509746663607 6.089525598943595 3 -2 3
382 43 2 -1.00911732824923 11.11059160900659 8.0188450564611 7.00821418048116 -5 5 -5
112 13 2 -1.008189667079205 11.921447356816524 6.892355066576721 9.305735375002826 -7 5 -7
59 7 2 -0.9478741259324291 16.249630705377797 4.113387636230209 3.236882608916771 -5 -1 3
487 55 1 1.719098500856451 15.903671489355139 4.400493115247244 8.598753458700273 4 6 4
104 12 2 -0.9330813590666454 14.996033004947476 3.419712318357993 7.647401356258817 0 -1 4
320 36 2 -1.078366800010109 11.48420779790687 3.0542884933202092 4.169501459236185 -8 -1 -5
43 5 2 -0.9396605846963404 13.44468208251237 7.096544691749569 2.175999880268139 -6 3 -5
55 7 1 1.818883969879164 16.515122458854933 7.889077048594917 2.079740399365378 -2 -2 1
155 18 1 1.922020870001899 16.85920906009334 8.2071328853956 5.066183143742565 -4 -1 0
284 32 2 -0.8889469466863349 11.428483766348068 5.438004783232257 2.0065065660326766 1 0 -1
49 6 2 -0.9273102100687469 16.899557457265935 6.323853564099635 1.8228306446034273 1 -3 0
5 1 2 -1.023625185649642 10.795176360793073 5.10474365393259 5.569430846772148 4 9 -1
446 50 2 -0.8737307624232683 10.640618921219977 7.9345926445403245 2.662076126064126 0 -1 3
468 52 2 -0.9215188318166108 15.134980722487269 2.651600398699484 5.11685449037755 6 -3 9
84 10 1 1.855229434035903 16.338587832679828 2.7189745959836555 4.060855980896832 6 -3 3
418 47 2 -0.9455442150121655 13.347392592064216 2.6973690033114135 9.994188268500917 -5 2 1
549 61 2 -0.9846822016302285 16.871808566816995 9.798433122543496 5.158336452534212 1 2 2
232 26 2 -0.9058826509647425 15.37552871687702 4.4037540538007764 10.105095745014975 -4 -2 0
216 24 2 -0.9244225577707934 10.888560609505017 2.3797905914712096 9.680572985315445 -6 7 -7
492 55 2 -0.9516956301724097 13.851918682241974 4.478706504169394 1.6027600160010453 4 0 -2
237 27 1 1.746611896910166 17.365602898253634 4.977757705734589 2.5241097581753227 -8 4 4
330 37 2 -0.8921281189769709 24.03326363531842 10.006095366691783 3.9275109833325663 -3 2 -7
257 29 2 -1.011128782407791 19.54806992894141 2.3354363059799415 2.911572246532089 -9 0 -2
198 22 2 -0.9133828497041189 23.20951889259824 8.1705096073081 2.4051156077495346 5 -3 0
126 14 2 -0.9970587893673672 22.234517333614036 3.8958126036680767 4.23762681502301 -5 6 4
342 38 2 -0.9530735503990857 17.734298298493947 2.4922803290750566 4.802451306045251 -6 -3 5
302 34 2 -0.9472214097374778 21.391399595238333 9.069867627738027 8.885752960040163 -3 -3 5
268 30 2 -0.9529235816562072 20.54353176854658 5.830072696860645 5.186095529481889 4 2 4
417 47 1 1.738658785743048 19.098935238706716 9.73519093827731 2.5697943877311333 1 3 5
374 42 2 -0.884256344563997 21.896590131490527 8.764620074880074 4.686169644304838 -3 0 -6
4 1 2 -0.9802427204174127 22.129814782104006 4.474339697316761 6.765479812834582 0 -2 5
36 4 2 -1.019179958536378 21.819817848976626 4.512607668364424 9.351655323475423 2 2 2
137 16 1 2.046996015245205 22.292842396067435 5.322989248933216 8.092298593596452 1 2 -1
120 14 1 1.910322201291995 23.5799111873758 3.281468759200597 3.796340844793378 -5 5 -5
509 57 2 -0.9331154857835577 18.21257598822738 7.347417776667938 4.963870685639819 -2 4 -3
214 24 2 -0.9515683369742183 19.15252719467928 7.511272563887296 8.786974477229297 7 -1 6
331 37 2 -0.5294542627477934 20.458903021406137 9.452176037619424 1.7497267263801222 -3 1 -3
260 29 2 -0.9570209589524804 21.52896193934511 6.739319074975294 7.83625392460788 -2 -1 2
61 7 2 -1.041154677037235 23.826977565853987 5.458423305472317 8.308860594771154 -7 4 -1
530 59 2 -0.9411005977765993 17.816397721797962 8.818553899883849 2.1114054134469056 1 4 -6
158 18 2 -0.996877042155909 18.411030093298024 5.208305360239677 3.765673269983679 7 4 -4
436 49 2 -0.8689676663566819 20.18986815403006 8.931433047004118 6.637927964169983 -3 -3 11
574 64 2 -0.8910168869839623 19.500837539899806 9.42492431700132 4.142348728916977 1 -1 0
159 18 2 -0.9944110296562324 23.792887252491383 8.164739227457671 9.386261495476173 1 2 -14
354 40 1 1.859378074359614 20.626561310302144 9.635596589618727 5.265988845239965 -1 4 -1
425 48 1 1.910539412608844 21.262753824808044 4.391336671705855 5.416597371141449 -6 3 -1
110 13 1 1.805352954127698 20.49201318177647 8.01993097895241 8.04808095951503 1 3 -5
542 61 1 1.943832684400808 22.578740832160456 9.005541772163834 9.956197647063428 -1 -1 -1
16 2 2 -0.9629896793320877 20.17265886867183 3.2490000683389204 5.383962552182307 -1 7 -2
242 27 2 -0.9283050250977836 20.037353296062285 6.688775663600183 2.799031948730832 -4 0 3
332 37 2 -0.9406001830727215 23.431043957168228 2.8643864410761743 2.235360595068557 -3 0 -2
146 17 1 1.81567073379877 19.339536031332763 6.3461469206547125 4.264205600793403 2 1 -7
531 59 2 -0.9461404724061373 17.43324227860981 3.739164050111449 8.606129736379122 2 4 5
507 57 1 1.776941823494021 23.384794470107515 8.513905347714726 3.9677571703303496 -4 -5 6
424 48 1 1.883972701541416 19.629903910481445 3.1929167731238195 1.5626394539275286 -4 -8 -1
349 39 2 -0.8978546220411354 18.188313550254207 3.9578944570601533 1.4651382305485667 -6 4 6
179 20 2 -0.9697077420330413 20.509885371991544 4.509847021015904 1.5448346189138804 1 1 -5
280 32 1 1.926527678098099 18.522811977724125 7.325526038103911 10.253228841462025 3 -3 -4
391 44 2 -0.9374200309905293 1.8044582829414706 13.469755458737907 8.598857133210831 -3 3 -7
274 31 2 -0.8775569781477949 0.05475997318043557 15.447790823806084 7.62120540083921 11 2 1
156 18 1 1.929732791330296 1.5759926195447465 12.20738075296527 2.8025700082236833 1 4 -5
575 64 2 -0.9707515137525141 -0.6034453862992324 14.50432620185501 4.377822614187505 4 4 -5
299 34 1 1.801192349932766 0.508713576555746 16.950850755537815 7.268237272227097 3 -1 2
554 62 2 -0.9827866095315251 2.086555624498053 16.754100914321437 7.284175772477391 3 -7 -2
3 1 1 1.969097853774681 -1.699495588890372 12.78122840367327 7.509993359441955 5 -7 -4
250 28 2 -0.9119035032878031 -0.8274668596927834 13.41562914349968 8.69254629169543 -3 -2 5
29 4 1 1.940184013891982 -2.038804244467062 13.991919353002404 4.6993034897795045 -4 4 -2
53 6 2 -0.9913606106742872 1.6879039801843252 15.839366327531659 3.4606330985259874 -1 -4 -2
307 35 1 1.914180880004431 0.3719413118419981 14.99001320520569 3.1774924928387462 0 0 -2
140 16 2 -0.963339858628515 -2.0945395842956795 13.735167500332361 6.300683829675989 -4 1 6
144 16 2 -0.9366479187827889 0.8008506151881436 11.29099801973061 3.9035578409910014 1 1 6
386 43 2 -0.9873026951621533 -0.8348489650684487 11.590048145092004 6.978243510206071 4 -1 -4
190 22 1 1.816936127642076 0.473129773349922 14.35771993862541 8.765648494083598 5 1 -3
350 39 2 -0.9545375334808774 0.8490603732818292 13.612900394497414 2.5571340159841887 -6 1 4
208 24 1 1.805769181675391 2.7285893801037444 17.050553420362988 3.7171779321936715 2 2 2
211 24 2 -0.867571056974884 2.7793744909139733 12.962846604842385 6.345082087253303 3 1 2
94 11 2 -0.9307757994282105 -0.6759781925008039 15.854257352283174 2.238322017180258 6 1 0
70 8 2 -0.9452834503237584 2.926693531004604 12.365381625554235 3.601793363327683 5 -2 8
442 50 1 1.91417035756083 3.199836310751868 13.28041986542842 7.868956035572451 0 -1 -3
189 21 2 -0.8673333299669534 0.02953425405850707 17.527287662761193 5.744955129978521 -2 1 0
221 25 2 -0.9482672627889269 -2.524445962971323 12.617558793481768 3.9233582834742466 0 -3 1
224 25 2 -0.8789895587438334 -2.4575136832558835 10.907785270497488 1.9664128650849841 0 -1 0
86 10 2 -0.9542851356765186 -3.123216837997474 15.172186175301556 4.505801469677672 -7 8 2
116 13 2 -0.8839460034149033 -3.0658821239962166 16.722758677940156 9.298986322104678 2 0 6
196 22 2 -0.9921909484917837 -3.2105465283171606 12.472711710215194 7.965144599388116 4 6 -1
212 24 2 -0.9198672133182648 -0.113435164217774 18.003180334973177 8.285630958497812 -3 -2 -6
481 54 2 -0.9052017345513168 0.7913922361219026 15.21919022884226 10.164772786006075 0 4 2
344 39 1 1.825004631159943 -3.3780726762251176 11.45898017769123 3.201456377308104 1 0 3
523 59 1 1.745755790246184 3.304500142165864 17.583538314661496 6.664248327739194 -2 -2 -2
576 64 2 -0.9368926141603526 -2.9461234263291742 16.544705851892 1.3910169118187454 -2 4 -3
106 12 2 -0.8423883656372215 3.562297814176386 16.9675691830846 5.132063289021524 -2 8 -4
439 49 2 -0.9394704019203783 5.651716777564305 10.379244135579604 3.367353245517748 -7 1 1
448 50 2 -0.8430215811688961 3.786050522281257 17.359361333124156 2.5384813403632682 -2 -12 6
517 58 2 -0.967544072877094 6.404012708992298 10.410409858533187 8.171857206753478 -4 -4 2
176 20 2 -0.8837156158401284 6.2471804879387065 15.382695213400616 7.1925065597947855 5 -2 -5
226 26 1 1.911787773756167 5.0684973643564355 15.7940695259301 8.189471748146225 3 2 0
414 46 2 -0.9367401838858753 4.750589334756967 13.622455100947645 5.00211540900683 8 1 -1
277 31 2 -0.974275023805639 8.708781192179947 10.61738322117302 9.397955743644438 -2 2 -6
65 8 1 1.900687321690879 5.845098453865212 11.88143054152068 8.387684428445551 4 -4 -6
413 46 2 -0.8571312305527772 6.264953879544056 15.717154780242138 4.548954150478444 3 2 1
526 59 2 -0.9234809345779341 7.12170670416104 10.895337313063125 5.56425167885519 4 -7 2
73 9 1 1.406295317108163 7.735800901170302 16.27394246081314 1.7266188117730052 -7 1 2
252 28 2 -0.9055818780618763 8.5087346220377 15.57888361454384 6.073002853500241 3 -6 -1
166 19 2 -1.002558963915298 3.9942204841148765 14.64954510523879 8.046928494248103 4 -5 3
337 38 2 -0.866544919449732 7.099183730641753 13.240736915115058 4.63382753872496 -6 1 -1
34 4 2 -0.9530664163387838 9.01287814891373 14.474181066452088 8.655982166411295 -5 4 -5
540 60 2 -0.8210278127886584 8.441598922691698 15.040103810490992 2.5823175175508415 -1 9 13
71 8 2 -0.9820763065182738 5.61787696064297 16.125415253013156 9.636785459404521 7 -2 -6
496 56 1 1.917669578042795 10.166855897527755 11.073944827269044 9.868566651156593 -4 0 -4
499 56 2 -0.862937985690168 6.3122948077896766 17.089132504083892 1.7114829960505333 3 -8 1
365 41 2 -0.8879904058617878 4.605202053281859 17.258118327933257 7.521604628037546 1 0 -4
453 51 1 1.800032968154905 7.541534758933448 12.380890467457787 5.987143335535185 -6 0 3
431 48 2 -0.8859030520989222 8.961089051743436 13.011877231753633 6.3772400427521 -2 -6 7
449 50 2 -0.9099535112920816 5.494265427732969 14.007278295250853 2.467188179136651 -5 2 -2
438 49 2 -0.9396934293148544 4.483221093200308 11.011266310925988 5.327149123573063 4 -4 -2
14 2 2 -0.9162069540492555 4.230538124440126 12.061448573595499 8.156020538417447 -3 1 2
335 38 1 1.78349442309653 5.902000167727319 14.202595137362705 4.07136248735231 2 7 0
506 57 1 1.781344118466842 3.7060682485930823 12.424336362679657 5.057068956574096 -2 -2 0
336 38 1 1.711110857590052 7.0394012376508055 16.15706803378778 5.972262637659005 -1 -5 -3
421 47 2 -0.8807839108493467 7.082521708556888 17.787697109366817 6.148109481838456 -1 -3 3
26 3 2 -0.9985106687975029 6.094673296423462 12.43768384255727 9.864537388885841 -1 3 -5
410 46 2 -0.9479611617167989 6.67599753715395 12.714537715399294 7.285326597307663 4 -3 3
460 52 1 1.744798791075273 9.642548843089557 13.99530341736485 2.0967920852405424 5 0 -3
11 2 1 1.815440532323839 9.313294641225422 14.503653882168068 7.047360165328235 3 7 -3
348 39 2 -0.997705065608145 10.202424059914243 12.610971534238585 10.04695624240339 -4 1 3
416 47 1 1.959268803321811 9.380045204402057 14.007944753242379 10.114219174432804 -1 3 -9
491 55 2 -0.8891503153610084 10.258502728121723 13.027369484579483 3.2673022939345957 -6 1 0
477 53 2 -0.8962715691353902 10.30747608053899 10.346877857385973 3.956789405666028 2 8 3
72 8 2 -0.9140429891325434 15.273727947268744 15.778083767344073 6.4407165318630994 0 -3 -4
191 22 1 1.884487938726333 14.181496578379276 14.998731607958508 5.598055875270017 -3 -1 -3
304 34 2 -0.9232006906646584 13.790262271117749 13.55998568780514 6.273912917000119 6 3 0
67 8 2 -0.9563236598861978 12.78092891569075 15.798632843927486 5.583446201349095 -3 -3 -5
384 43 2 -0.9324629952089744 12.140926267777772 12.172628067477778 4.742051271986975 7 -1 2
533 60 1 1.96381940614127 13.450145292323418 12.095186756378684 5.712254326643057 10 -7 3
238 27 2 -0.9461180116099716 14.529048771192182 14.520471812036934 4.105542277168874 3 -6 1
12 2 1 1.994771865202775 11.7306186395393 16.252719585017562 6.704842182529753 -2 2 1
58 7 2 -0.9809069396903142 12.335733790697995 16.99643377929297 7.9683681938469 2 1 1
235 27 1 1.966468844733855 14.182132234607861 14.807010602809617 2.5281377585112548 -6 6 -6
451 51 1 1.885333501068053 16.381051313525496 11.313141804838017 5.217045065526186 4 -1 2
423 47 2 -0.9451369938137267 14.770958780179017 11.564608289566504 5.041117162467538 -1 6 6
412 46 2 -0.9019716044886017 16.079220087219106 15.044147187367114 8.859862109393564 2 -1 -3
200 23 1 1.962336202048455 11.509010522861264 16.24965843228545 2.212105455271868 0 3 -2
167 19 2 -0.9692625900690683 10.807707028094642 15.0393322081509 7.0823041379565135 -4 3 1
327 37 1 1.838712550375914 11.153616442563713 11.716899309619404 3.5845730485928873 1 0 6
372 42 1 1.952479450616539 12.310486794198006 17.56360337315796 9.469178043551805 5 5 -2
387 43 2 -0.9661796019873228 16.363983935355314 17.423273611603378 3.0351482695728773 2 3 -9
80 9 2 -0.9838142703206564 12.92925227519146 15.726334554356587 2.6924196437852297 -7 1 4
441 49 2 -0.8934883510142456 12.11042102146531 11.35159498950096 2.317603611445832 -1 0 -3
103 12 2 -1.037997856603309 13.480100711185257 11.270985036822436 9.655061479767221 4 7 -8
303 34 2 -0.9645308482987228 13.237234875970485 11.163299695874006 7.015947462964022 6 -1 4
2 1 1 1.749321925035602 16.554429444591648 15.661719586743171 7.443805226834422 0 1 0
456 51 2 -1.016109672334955 10.843572334300159 17.391304895367263 5.9841480335827315 -4 -3 3
532 60 1 1.769979987967111 16.65171188513034 13.818380247216043 9.808149268851587 5 0 -3
426 48 1 1.990941518391699 12.752231732715755 10.617688701256798 8.429540624631969 0 -6 6
403 45 2 -1.02006143074693 10.664545262309595 16.612009002812467 3.4857552128590217 -2 -2 -5
527 59 2 -0.9544305582826074 11.184771895984515 10.779775147945802 8.630926752950893 -4 -1 0
157 18 2 -0.9444448879161348 16.779187524668934 12.12054087735595 6.546211426257473 -3 -2 1
561 63 1 1.921126197107234 15.867681775903753 17.07454601499395 1.5765407356499144 -2 2 2
400 45 2 -0.9935784403613491 15.25034258657013 15.612996189075355 1.6820103581280548 2 4 4
471 53 1 2.042519540876378 10.577641534449658 17.799107653716057 4.507483967984126 1 0 -3
6 1 2 -0.9050465847281483 13.834803954023544 13.59673606971721 1.566950756945383 -2 1 -8
482 54 2 -0.9088131153958872 10.864913097862425 14.992850903333771 1.4678801399957855 9 6 3
188 21 2 -0.9118237771905653 17.06635215431215 12.231661891064551 4.010760421141189 -1 0 1
555 62 2 -0.8674139121941349 17.289376915110203 17.13882996584833 7.677981279241609 -2 -4 4
76 9 2 -0.9127625321744233 24.028614322026947 16.500543511883237 6.765525034259446 3 4 -4
197 22 2 -0.9394603797260769 23.927128970050326 17.89720612190611 4.6295118951296725 1 -1 6
169 19 2 -0.9494375822617144 18.678244199986878 13.961458765684133 2.388557638506471 -3 -4 3
465 52 2 -0.9688639035051538 19.468278979804012 12.718194239650765 6.880812543315286 9 -3 8
282 32 1 1.776244859758167 17.910631714681173 13.011839156516643 7.230409730942271 -1 2 -2
390 44 1 1.922233140742913 19.242870575146668 18.21378584629302 4.480579562470041 5 0 -1
495 55 2 -0.8483094506618111 17.550493277281113 14.539177354554953 6.718647391883257 -1 5 6
182 21 1 1.809492854393219 20.664055234177475 15.47544458160737 4.49574928227546 -5 -2 3
275 31 2 -0.8596490391590653 19.544512337762704 16.61580230711871 4.830610706505752 -1 3 1
301 34 2 -0.9786642578922194 22.97899422389358 14.685124780626545 8.344856419685023 -3 -2 1
485 54 2 -0.9773340535173231 20.824364547550744 11.235228268595888 5.314294427250976 -2 -1 -2
165 19 1 1.973411580092294 22.922442450447676 13.161511814999677 7.858773877219802 1 -1 3
122 14 2 -0.8888351486720435 20.84587351468047 15.348875076116947 2.846769037906242 -5 -1 0
192 22 1 1.883220182970853 23.62429185291034 16.378775645465886 5.189358480952713 1 3 2
93 11 1 1.864678370808604 20.00137839722305 14.560732493986158 1.7127227049078295 -2 0 -1
443 50 1 2.018512297158425 20.71309761686497 12.708430251949924 5.932167305604015 3 3 2
203 23 2 -0.9197465467250133 21.99164712032252 12.385874004082835 8.91684715683406 3 -4 2
557 62 2 -0.9314093518356612 22.833462283465117 12.039338424797553 2.447170224300276 -1 -1 3
271 31 1 1.845384939309374 23.382212417968965 16.265194750913082 8.190187322059415 4 -2 -4
77 9 2 -0.5574932199297392 20.074516658030106 15.636352453718162 8.651888003826526 -4 -7 -9
132 15 2 -0.8353707865758148 17.625627184274464 12.859878205334518 8.850802116154831 -2 -1 -3
490 55 2 -0.9379306286691992 20.449610320189514 13.884062594026211 4.842072759258743 3 -8 0
33 4 2 -0.9376241022137286 22.057582780180553 17.141431000379253 8.51912004836179 0 -3 -12
461 52 1 1.859370293243201 17.943004634436782 12.584801245414768 2.6441239772522023 1 -9 3
92 11 1 1.774689776792804 20.629303512381114 17.004056904712648 9.158118644269141 -1 -2 0
347 39 2 -1.041229719050177 22.13648947940002 13.032958459775257 6.505665740070737 3 -4 -5
69 8 2 -0.879654071908382 19.53033901216925 18.116510057820356 8.570134779318117 3 0 -3
494 55 2 -0.9597501066389643 22.05531548958146 16.045893567334833 5.0409039309909325 -2 -4 -5
564 63 2 -0.91876750525401 18.94641417544109 11.310622241632503 2.5059946380354603 -7 6 4
525 59 1 1.870674350861616 17.969372776216666 18.23690535242973 8.660094132410023 1 -7 2
385 43 2 -0.9392222008001235 17.83065971150028 17.600086458706215 10.165436310477403 -4 1 1
50 6 2 -0.9007909830298712 3.151741707818241 6.207294175472083 19.12010256203269 2 2 -7
375 42 2 -0.9200687036415615 -0.8304721149533667 4.6395279229877975 19.16683613286458 3 9 2
432 48 2 -0.9705322826843146 -0.7844034706896221 7.36489034511372 19.186558836887066 -2 4 2
269 30 2 -1.007991234663983 -0.7643500021462866 7.032889056637974 14.701690205915106 4 7 -3
95 11 2 -0.9836637087714667 1.4187884160142596 6.0102970389351285 16.032268411713012 11 4 -9
287 32 2 -0.9710293816793659 -0.3137500178221795 4.485736697149227 15.030495177714082 1 2 -10
345 39 1 2.000060290359391 1.7723497722162822 7.204240945085121 11.126284757762402 -2 5 -3
83 10 1 1.972930879564658 -0.17473136987769555 5.911905716879581 15.673689164371773 -3 -2 -1
101 12 1 1.925678224036856 -1.1773424029316293 7.786186102722546 11.583266847315802 5 -1 2
288 32 2 -0.9804457836635658 -1.0751681505005655 5.972344150418098 16.981277231410175 -5 4 -4
195 22 2 -0.9801033712257529 0.3059342539725738 7.273551046199813 11.712979383644873 -6 -5 -3
230 26 2 -0.9992903092412097 2.561418819256593 5.8654681122736525 11.394195249709774 0 -1 3
397 45 1 2.002651617928125 2.686695569452896 5.20894665772085 15.518886310676269 5 -2 3
285 32 2 -0.9206861213214498 -1.254131550519182 8.813035023413136 12.912522752189838 -2 -1 3
321 36 2 -1.017001441764077 -2.39083445301344 4.015082308370873 12.057740140685876 4 0 2
152 17 2 -0.9867684059150594 2.58381598609531 5.3201191562597465 13.929632006627767 0 -3 0
563 63 2 -0.9983823968815607 2.6739397996734784 8.41790327953467 11.658356107448947 7 1 0
569 64 1 1.964769790772191 -1.062284841479212 8.57037022358768 14.45919497040325 9 -2 6
328 37 2 -1.004804146189688 -2.1617296773727235 6.509774336099489 11.710233872993646 6 3 -6
41 5 2 -0.8743975224872444 -2.4267624162590717 8.995391837673615 15.258743133000467 0 -5 8
264 30 1 1.954753182177509 -1.2606879588133464 2.924126093907604 11.85930373806445 -3 -6 -1
524 59 1 1.84044024677032 -1.4782269020397911 6.05984800754623 18.56379002640395 1 -10 2
281 32 1 1.921670509889674 -0.8376482177272067 2.946991412387711 14.847979411463179 3 6 -2
369 41 2 -0.9692371275467746 0.11398169777103684 9.43750775841429 15.02915623425486 5 -1 0
98 11 2 -0.8252762988859448 -0.8800167477219665 9.774914556032746 18.242698526481952 -10 -2 -3
409 46 2 -0.9286206696439153 2.905992933222201 3.736243908576542 16.06801402870343 4 5 3
322 36 2 -0.8785069630805236 -0.5044159539796094 2.661828046277436 13.284683754269274 5 -10 4
521 58 2 -0.8983101603506842 -0.24166777392491268 3.391941084950151 10.677100731324401 4 1 5
100 12 1 2.035933004742815 -3.17816382620267 5.4275513321207 12.257865850752207 -2 6 -2
516 58 1 1.950862344207128 3.2562308724633384 4.975290548188584 12.54093739772624 -6 0 0
151 17 2 -0.9074235304577941 1.5152376197422024 8.511527830894543 18.779643309293874 1 -7 -4
145 17 1 1.75100256005439 2.970974009896554 7.809038619125913 18.874022328868534 -1 0 8
455 51 2 -0.9940246391335771 -2.43981292524761 2.8017369413814865 15.068409994730654 8 6 1
463 52 2 -0.9886585918555001 2.8946485651664835 3.5105208785913753 12.092679214669676 -1 -4 -2
472 53 2 -0.9931285021739591 -3.2601437636674415 2.5586114451341495 17.582026743468596 -7 3 -3
187 21 2 -0.9164251834175959 -3.100136713710432 6.267229538446185 18.79507198694251 0 1 3
309 35 1 1.946705654383616 3.293372616926881 2.4032280383476072 11.060854761470315 -5 0 -1
406 46 1 1.866924389626847 3.3524853468186793 9.688098799554284 10.960227608034979 6 2 7
202 23 2 -1.012365677655616 0.15962584206834318 2.441576198645227 18.36015839095615 3 5 3
529 59 2 -0.9076495274106994 6.179849812205838 8.94564606705012 19.17038696874191 0 -1 0
359 40 2 -0.9254580390373788 7.419154276494474 5.6245877973461145 17.7179403792264 7 -9 0
399 45 1 1.680905779878829 8.550957396392137 5.532733208523027 14.494972042558873 -6 -2 3
486 54 2 -0.8912719029167565 4.92844497650646 9.273102399088696 10.70915629004293 -3 -8 -4
248 28 2 -0.9456988038883498 6.0321530914837425 7.45756418910635 16.626289915477265 -2 2 3
9 1 2 -0.8766590526119277 10.160298462643228 5.307744824867647 14.040026499249748 10 -1 8