LAMMPS data file via write_data, version 29 Aug 2024, timestep = 5000, units = real

576 atoms
2 atom types

-3.4776369815066257 24.063214693104253 xlo xhi
2.323877085967208 18.261700625625636 ylo yhi
1.4117207752784822 19.17385693631564 zlo zhi

Atom Type Labels

1 Si
2 O

Masses

1 28.0855
2 15.999

Atoms # full

366 41 2 -0.936038677121707 0.3900329362910031 4.182076002909161 5.186505784600298 -1 2 3
470 53 1 1.802846480511155 2.333586660338324 7.888239782074564 5.805944034831217 -4 4 1
315 35 2 -0.8892303933515596 -0.9728678988697683 6.2421827943511925 4.430050810764438 9 -2 0
290 33 1 1.910552234706195 -2.482096812661389 5.832902513235071 4.807132543456443 0 2 -1
474 53 2 -0.9308938224309844 1.8662611277946182 9.184325654705559 4.8820723038466145 2 -5 -1
175 20 2 -0.8647933236452441 1.1068537115515076 6.805395273361416 6.0258287688280845 3 -4 -4
377 42 2 -0.9370199606947611 0.2620794122886818 9.119142090761589 2.933024783253982 -4 5 -6
75 9 1 1.703340562325302 0.5321421978137311 5.751897831517362 4.848450655985526 -2 -3 3
402 45 2 -0.9848986529178428 -1.2164656219033687 4.425629269890944 8.469716911924802 4 4 -3
488 55 1 2.080458329707545 -2.2567903770897426 5.443297574539747 7.842185583495602 1 1 -1
360 40 2 -0.9446227074146647 1.6116796846258543 5.942245679626934 3.6021985029994887 1 -2 0
220 25 2 -0.9758698737905185 1.299863251351848 4.261893505239095 8.590934647124845 -6 -3 4
408 46 1 1.898147767749286 2.6235131564055463 5.152262970816331 2.620114029013324 -1 2 5
46 6 1 1.973636174168602 -0.05593329563202554 3.544550278981853 9.09186045580202 0 -2 4
124 14 2 -1.051239540959818 -2.4765483671908446 5.311065196109771 6.303843337362166 -3 -3 2
210 24 1 1.950103936966872 -2.111868297695872 8.231043746880172 9.010580178450729 1 -1 -5
38 5 1 1.856222265705105 1.7702693590770302 8.826648691689975 8.535214033013471 -2 8 -4
314 35 2 -0.9137578648563049 2.644154814253195 8.422213800233568 7.256078739724996 6 1 7
419 47 2 -0.9879136592753389 -1.6757227910241443 6.861073852895032 8.273943649591677 -8 -1 -1
306 34 2 -1.003806300934636 -1.8699841734727667 9.330828045049515 7.863603664514771 -2 0 0
401 45 2 -0.9071462991787207 1.5054046441067959 7.4617784003716565 9.44544735572124 -2 -1 -6
118 14 1 1.916842423293503 0.4695602353927253 9.791473165952096 4.367637992426667 4 -2 -1
201 23 1 1.918615075275375 2.877366412175159 4.09086638836669 8.315865052612896 -2 3 2
364 41 2 -1.030710389561685 0.5774401175635626 9.628747126717634 7.870629033514645 -5 -5 -1
231 26 2 -1.005170740953456 -0.5791108517130192 9.620687568041884 5.55728825870683 2 1 6
60 7 2 -0.8650757432466417 -0.2932626767907509 2.6892429867922765 3.074419367627928 5 -1 -4
352 40 1 1.768596455376013 0.3543761602197635 2.6949719013613223 4.6201612700285 -1 -9 6
168 19 2 -0.8738982592172753 2.638659467141312 9.813387230765848 9.592584853891376 2 4 0
536 60 2 -0.9326666925925048 -2.822303685128322 4.49278238804722 3.953959348107885 1 4 2
123 14 2 -0.9444601251079229 1.7170249795645685 4.05348556581513 1.9573296174750676 1 -2 2
380 43 1 2.107109668138079 -0.6903898720274948 10.039590874605869 7.1044786518134835 2 -5 -1
300 34 1 1.796125034326278 0.2227174171902293 3.423326751423395 1.710696883380661 6 -2 -6
432 48 2 -0.9455131312431394 -0.9830475127188048 7.2428079673274635 1.6164600752927232 -2 4 3
484 54 2 -0.9664040674422782 3.116232304693602 3.1958170769165006 7.027794201240953 -4 1 6
249 28 2 -0.9382382115478124 1.8555654694061277 2.3572459054753394 4.269185594771095 2 0 -4
199 23 1 1.845041128598553 0.018903787890342638 8.501313116487271 1.4381659201682067 -2 -2 -1
404 45 2 -0.9367104997520146 -3.4045258314379008 7.153446111947814 4.561568544207464 6 -3 4
330 37 2 -0.8213533365065209 -3.379021761542991 9.996527791309017 4.112493311827166 -2 2 -7
50 6 2 -0.9331917426797082 3.1709788824119824 6.187404451920527 1.5039929088896489 2 2 -6
375 42 2 -0.9643597149170017 -0.8623346308694071 4.602093779945736 1.462693736703158 3 9 3
40 5 2 -1.012165948768179 3.4965953515399733 3.364644882625005 9.631595631056236 4 -1 6
550 62 1 2.017232136567682 7.0751110109713 4.038683320983576 9.634756089384302 -5 1 -9
311 35 2 -0.9376373284286643 9.288493271312618 8.171452805206012 4.871549600114784 0 -6 0
173 20 1 1.958388943053085 5.650919156381304 4.793161741515693 3.4959303406276443 5 -7 3
228 26 1 1.876680335870107 5.058713500221897 9.599480142564886 2.0408121531156618 5 -1 7
464 52 2 -0.9950515941390915 8.68579495878887 6.072282454655892 1.9374103229984514 -5 2 3
553 62 2 -0.9690672628589978 5.645696022030288 6.492507291612069 6.60397398921794 -1 5 0
289 33 1 1.976322684275723 9.573869849700229 8.897424070075946 3.466990448895269 2 -4 -1
186 21 2 -0.9431094770908757 8.932123809254954 2.4816066241809276 4.33641467291673 -7 -1 -4
57 7 1 1.91560877686098 9.548665479249147 8.031236161420619 6.474433315226401 3 5 -1
558 62 2 -0.9730246807408931 8.69045731416743 4.144760638872018 9.731435955362358 3 2 -4
131 15 2 -0.9535228089359933 8.423282059896962 4.051272787800098 6.2336190330665735 4 4 1
498 56 1 1.966002142816161 5.2015971073951075 7.170845198588872 5.256083260866067 2 5 4
111 13 1 1.884373952494462 7.855798207724225 9.559806051857432 8.66952036234335 0 -3 5
324 36 2 -0.9607346753154309 3.7722465894247605 8.649608429772508 2.128319693392367 2 -1 0
381 43 1 1.926830799004276 10.28152059914676 4.034697419801961 9.48034504681059 -2 -1 -5
422 47 2 -0.9639391425403684 6.363048320734782 4.968930411920619 8.544080215329114 0 -1 -2
273 31 1 1.978160963342781 9.64656351691156 5.017072965854415 6.652921774159145 -2 -8 6
476 53 2 -0.9667615235224671 3.7021117130237755 5.420406418341857 8.058692305268941 1 7 0
411 46 2 -0.9792327045439514 3.627504898178855 7.204186846470779 5.168726478275346 6 -8 -7
180 20 2 -0.9457223131395336 5.733959854936236 8.693567849566136 5.19855562963402 7 -1 5
107 12 2 -0.9447570828736824 9.221836517821698 6.511203540983185 6.919950576481281 -1 -1 -2
278 31 2 -1.001153685315671 5.1569471977603865 7.2338876451019125 9.045596383361918 1 7 4
239 27 2 -0.8967453139049103 4.072535484357941 4.597015599584538 3.2121834789322934 4 5 6
227 26 1 1.875066497786931 7.691324808144547 3.044777047402022 5.180845690486615 1 2 0
493 55 2 -0.94517161154953 6.358975682918516 3.7972863413858544 4.493059330802193 -4 1 1
256 29 2 -0.9315416750720173 5.7323973667312895 6.343933822452629 3.9462342941186774 2 -1 -3
373 42 2 -0.9575766204063024 6.4449126218176325 4.672490472521753 2.125707300981561 -3 3 0
35 4 2 -0.9953403507086388 8.423702217961427 9.112399172838394 2.411469910536252 5 4 2
236 27 1 1.958616270169398 5.198953197284656 5.994731632071164 8.083129644521353 2 1 -1
501 56 2 -0.950551320028865 8.673156688859272 9.013409767628403 7.389484752904278 -5 7 1
420 47 2 -0.9654574355273886 7.3635537718026445 8.394443088069199 9.59444722725552 -1 -4 2
27 3 2 -0.9463753084041142 6.583392931450593 2.5620313793090874 9.396865040021197 6 11 0
163 19 1 1.834412007645823 5.771303247383697 10.253547893229339 4.977374284300767 1 -1 0
497 56 1 1.788668707917825 10.187392098056868 6.617215151257243 1.6919396197974903 -1 3 3
439 49 2 -0.9268598351483639 5.73983263968417 10.240196304107661 3.3477395944294175 -7 1 1
559 63 1 1.906069827852528 5.922462549454041 7.952880231406722 10.23126530071936 7 -2 1
13 2 2 -0.995924914095575 10.408874004509421 4.595241084788255 8.00643403876985 -1 -4 -2
570 64 1 1.896496664395081 12.906402805520097 5.728521430560825 2.339675818910192 -6 -4 0
91 11 1 2.027397124826857 12.300378896654438 7.705081470297731 7.801454740274472 7 3 5
162 18 2 -0.9129778745252524 12.896296440267557 5.295595777928085 3.8893690700210897 1 0 -5
370 42 1 1.854279812028165 11.937169110466431 4.397036724023865 4.8422335554439035 4 0 5
170 19 2 -0.9822831994386998 13.483076241681998 6.894441112752998 7.133405769218864 -5 -7 -3
296 33 2 -0.9105840876954018 15.095076152558109 5.39247611089624 5.820680791236088 -9 -4 -4
405 45 2 -0.8744346229206139 15.75578602312809 7.935017887955049 6.253086567874766 5 -2 -3
136 16 1 1.871301728428892 15.044636946846841 6.638329844413053 6.854508160846137 -4 0 2
357 40 2 -0.8909440484478747 15.759152804978976 5.968981517238802 8.135191942305468 2 4 5
295 33 2 -0.9115951019672852 16.083745434089465 8.17748191965142 3.6472575371627594 -6 1 2
45 5 2 -0.9948127243023178 12.88931507960441 9.062485980020368 8.448649699346163 -2 -3 -5
479 54 1 1.866552988475719 14.517428837222882 3.879450502457132 6.076569226865761 0 -2 1
171 19 2 -0.9074724859628962 12.92265901022252 4.033105637976285 6.074638375303489 3 -2 3
382 43 2 -0.9863308300726513 11.148539855974395 8.109830549887441 6.796615392235632 -5 5 -5
112 13 2 -0.9826924281583338 11.705263335243322 6.965624306015036 9.074339659515282 -7 5 -7
59 7 2 -0.9246704433623424 16.251043716031496 4.002049163971164 3.1645415401652732 -5 -1 3
487 55 1 1.805441728873144 15.807945869814903 4.423849659282714 8.709564255138318 4 6 4
104 12 2 -0.9269768799577146 15.055376925662442 3.571597312589285 7.5410704656283745 0 -1 4
320 36 2 -0.9387954641691777 11.584425562260714 3.0075259667454137 4.1371840830883855 -8 -1 -5
43 5 2 -0.9252087636407194 13.350028602100567 7.250937112890776 2.135559700131199 -6 3 -5
55 7 1 1.809466185320363 16.54082843326941 8.038901955613074 2.124596853946513 -2 -2 1
155 18 1 1.790533496122065 16.85915321282065 8.394681410437103 5.1068741390868055 -4 -1 0
284 32 2 -0.9478952861105419 11.34186696503996 5.548745674179229 1.9812030504495768 1 0 -1
49 6 2 -0.9070332321512883 16.78347892606967 6.457559841133366 1.9055413185200563 1 -3 0
5 1 2 -1.014822940230776 10.655366226733882 5.101108443919337 5.445047496261916 4 9 -1
446 50 2 -0.9371487367549012 10.494194111022475 7.9064302705408025 2.6560514971291855 0 -1 3
468 52 2 -0.9192527065702146 15.058417665015911 2.7517655439558455 5.093980859504764 6 -3 9
84 10 1 1.857500649754064 16.327571731559424 2.6930947647154007 4.107676504969798 6 -3 3
232 26 2 -0.9820864697262054 15.073113528826918 4.320467387312462 10.073490048714566 -4 -2 0
216 24 2 -0.9583546237961751 10.768991539854687 2.5175180582622643 9.54951978895543 -6 7 -7
418 47 2 -0.9685954887144275 13.309124367715201 2.4913161537966686 10.023403585395819 -5 2 1
549 61 2 -0.9704115248893238 17.070048618891796 9.982978698870456 5.301479240496791 1 2 2
539 60 2 -0.909580210237893 17.249966151257787 8.115621455237498 10.175610530417346 -3 -3 -2
257 29 2 -1.005905042443242 19.557118170157928 2.441704993556466 2.881779628519636 -9 0 -2
198 22 2 -0.8834993917620025 23.092708104470162 8.097826073522135 2.507319990695807 5 -3 0
126 14 2 -0.9477643980695792 22.146145685107705 4.037644354724923 4.207505188710575 -5 6 4
342 38 2 -0.9365840736654436 17.73147233020007 2.604487354448383 4.853843281175549 -6 -3 5
302 34 2 -0.9861551719287098 21.471555411719436 9.073538577264666 8.936154026776006 -3 -3 5
268 30 2 -0.9558540054120247 20.332503499142412 5.6841423069234 5.286095608906088 4 2 4
417 47 1 1.756840477072152 19.1680511696335 9.729219665958457 2.756102665183086 1 3 5
374 42 2 -0.9212697030015421 21.961663904533175 8.863623913583837 4.879966634612559 -3 0 -6
4 1 2 -0.9534053957315997 21.968659616191502 4.391353597798147 6.795121393931653 0 -2 5
36 4 2 -0.9745034628304039 21.733889981240523 4.422462395895156 9.39755472048424 2 2 2
237 27 1 1.771023193067395 17.284781047015002 4.993746496961744 2.452603193850167 -8 4 4
137 16 1 2.04791575122109 22.29887542841756 5.260432633114606 8.105202781572661 1 2 -1
120 14 1 1.934373691387247 23.60701575540051 3.353594356301398 3.8923204373724514 -5 5 -5
509 57 2 -0.8997530633568487 18.137170329110575 7.353809879855458 4.957475927480213 -2 4 -3
214 24 2 -0.9355613884415011 19.428736796604525 7.390926785745356 9.022881895245296 7 -1 6
331 37 2 -0.5485841281263257 20.425628724609766 9.361634686003537 1.9502051760548587 -3 1 -3
260 29 2 -1.003954432548965 21.609659846868176 6.682500290981421 7.896393647831379 -2 -1 2
61 7 2 -1.085565642434817 23.782119611059834 5.370668502514398 8.392562148593434 -7 4 -1
530 59 2 -0.9244053566080886 17.882586757539606 8.955042486526821 2.061797894057138 1 4 -6
158 18 2 -0.9888753942739347 18.23952529587646 5.250445701329459 3.7005784958829686 7 4 -4
436 49 2 -0.8648603171757961 20.237972485831484 8.899241688976243 6.813115942787732 -3 -3 11
574 64 2 -0.9202739085882445 19.552227294138483 9.523841353624011 4.329996647156634 1 -1 0
159 18 2 -1.048066157358127 23.851454763177365 8.258029205498332 9.452208329623186 1 2 -14
354 40 1 1.876548418551941 20.70984422024911 9.68502179471802 5.41233360188989 -1 4 -1
425 48 1 1.925376651341739 21.137004597490723 4.3381197230445725 5.401786422308165 -6 3 -1
110 13 1 1.885388238241732 20.638455019790356 7.962915975171961 8.115741795759053 1 3 -5
542 61 1 2.061762299718348 22.645466063456944 9.013839291891049 9.997105351796288 -1 -1 -1
16 2 2 -0.9437982997117065 20.169705106341702 3.058995547393406 5.241177523085858 -1 7 -2
242 27 2 -0.878673357184411 20.036419686838165 6.767479668366751 2.937579694693646 -4 0 3
332 37 2 -0.970000541258608 23.57513409068482 2.8282590452449425 2.408033855256023 -3 0 -2
146 17 1 1.78665341369569 19.2167673547885 6.342898641537384 4.2879458011679095 2 1 -7
531 59 2 -0.8772982269651286 17.332276230347965 3.763411433183441 8.771365420143157 2 4 5
507 57 1 1.778500096763968 23.346838928195076 8.478569390875009 4.050208732098673 -4 -5 6
424 48 1 1.766239581241245 19.522042393221156 3.3016880595492717 1.5146734842132035 -4 -8 -1
179 20 2 -0.9002008156900697 20.56117458936329 4.5102316645117275 1.5807963977078061 1 1 -5
391 44 2 -0.9185504050829933 1.8043486042771208 13.456789556671206 8.509542653638157 -3 3 -7
274 31 2 -0.8610386121265108 0.049026838543441364 15.490770472277214 7.691120197066073 11 2 1
156 18 1 1.976765547809227 1.523786426314845 12.103852005139029 2.8142187059346098 1 4 -5
575 64 2 -1.009571343894454 -0.6627511243034503 14.707976948600148 4.355399713723098 4 4 -5
299 34 1 1.808436245330077 0.4043561729075238 17.04374451683455 7.327892050787686 3 -1 2
554 62 2 -0.9995481614771652 1.9889340006214526 16.971373137780617 7.53093556166518 3 -7 -2
3 1 1 1.878091045136418 -1.7349361993564125 12.882414303989329 7.602367388802734 5 -7 -4
250 28 2 -0.8536354676451555 -0.9031179239760196 13.558770081129795 8.82867120946653 -3 -2 5
29 4 1 1.874255258882931 -2.1221837499975544 14.173861477880903 4.711560403291898 -4 4 -2
53 6 2 -0.9881150945975486 1.7346491636993528 15.752596823204977 3.730492462189284 -1 -4 -2
307 35 1 2.032266633116883 0.4196397561538565 14.967366630360132 3.2828075469672306 0 0 -2
140 16 2 -0.9001749504822461 -2.1253179926883243 13.766765839780321 6.316696984404622 -4 1 6
144 16 2 -0.9725032354002029 0.6072698499253448 11.274031915938727 3.8367389722044467 1 1 6
386 43 2 -0.9717534797001769 -0.8807224550082933 11.621207941595237 7.183932023995192 4 -1 -4
190 22 1 1.76917425487053 0.4974254574593644 14.428742876772823 8.858608328000628 5 1 -3
350 39 2 -0.9691408031122319 0.8348324683481385 13.55912876958763 2.684788760240029 -6 1 4
208 24 1 1.827970401190062 2.7780050812287405 16.983066285479453 3.9626300120378217 2 2 2
211 24 2 -0.894547723516689 2.7205382773035245 12.770797535408759 6.285794103896118 3 1 2
94 11 2 -0.9596914564189646 -0.3814002919949724 15.764578971157013 2.1468208599375886 6 1 0
70 8 2 -1.0336871431067 2.8723513128815155 12.219139464720843 3.605935588608081 5 -2 8
442 50 1 1.920396253750088 3.168145720153979 13.17063729175248 7.782130073836522 0 -1 -3
189 21 2 -0.8892013955060512 0.03170677425228652 17.485428299893854 5.779060265710488 -2 1 0
221 25 2 -0.8913902996763604 -2.6304244331354205 12.758469638666384 3.9443256547891328 0 -3 1
224 25 2 -0.9289946563470278 -2.4907813034046944 10.84465539694132 1.965311132647047 0 -1 0
86 10 2 -0.9429985496852197 -3.177383345096838 15.349066978766695 4.488347818088146 -7 8 2
116 13 2 -0.8827091452077669 -3.01445975259747 16.730360587176357 9.341333155206058 2 0 6
196 22 2 -0.9455819106502233 -3.2748844516388815 12.403035408986144 7.847174850565662 4 6 -1
212 24 2 -0.9314746434798314 -0.26239470930025144 18.054491550515465 8.37813541192204 -3 -2 -6
481 54 2 -0.900621745318977 0.7613790935840719 15.150080548886754 10.280610382099173 0 4 2
344 39 1 1.775974410561651 -3.267077892941309 11.406826095110217 3.243762734449218 1 0 3
523 59 1 1.825897727824459 3.2946288802721595 17.558488781532983 6.8174554344722536 -2 -2 -2
76 9 2 -0.836089428452383 -3.3259765561295893 16.40083961708708 6.7495750036793165 4 4 -4
576 64 2 -0.9308269212608872 -2.969258730640399 16.48724552979668 1.5235857163719124 -2 4 -3
517 58 2 -0.9745554828852673 6.432734740108897 10.295276200619202 8.288804008627878 -4 -4 2
448 50 2 -0.8594861822709261 3.714920020129039 17.203000594243257 2.6968000584652625 -2 -12 6
106 12 2 -0.8936137432472778 3.6389885671855255 16.919239236716535 5.358481552216855 -2 8 -4
176 20 2 -0.9233174260117741 6.4500307990103956 15.433335944087366 7.178024551834797 5 -2 -5
226 26 1 1.958803131758599 5.122827623979525 15.643959705379658 8.095166724106196 3 2 0
414 46 2 -0.9101541017172705 4.667800399634231 13.608601840112199 4.908937661345553 8 1 -1
277 31 2 -1.046491452042473 8.722840607655982 10.670112836703947 9.454397015301446 -2 2 -6
65 8 1 1.90840215737542 5.885447873853808 11.775675615920397 8.372173773939855 4 -4 -6
413 46 2 -0.8950731988715029 6.427834595475357 15.561657761771205 4.621184691392309 3 2 1
526 59 2 -0.8821201023961625 7.1813584320039965 10.911858043821923 5.603374980607302 4 -7 2
73 9 1 1.419868095815197 7.675126322835517 16.288574300773938 1.776719227182198 -7 1 2
252 28 2 -0.8918708733066171 8.637093030798285 15.344718373016581 6.131085984655475 3 -6 -1
166 19 2 -1.001177485286675 4.122959155819328 14.535192247542382 7.821523182578031 4 -5 3
337 38 2 -0.9398972860053404 7.164677685295452 13.19211737007253 4.646483796077559 -6 1 -1
34 4 2 -0.9091605273500899 9.176230453033853 14.601738421913335 8.719000127566702 -5 4 -5
540 60 2 -0.7771472902106847 8.309069493173856 14.996290348527692 2.569237902358247 -1 9 13
71 8 2 -0.9356342186469745 5.657125177145415 15.983280870209082 9.579832976835975 7 -2 -6
496 56 1 1.970978205356928 10.166106164508129 11.179607687615997 9.872050321295896 -4 0 -4
499 56 2 -0.8392254572139105 6.239592774196266 17.075416208745516 1.9725083144039786 3 -8 1
365 41 2 -0.9261110018014652 4.580779662657875 17.134592043879877 7.639727770818768 1 0 -4
453 51 1 1.742641428801999 7.514571757534574 12.398383912517847 6.012844370504188 -6 0 3
431 48 2 -0.8754405426746462 9.025012286694096 12.794317880128077 6.743357412370589 -2 -6 7
449 50 2 -0.8976122232717689 5.607325781302199 13.933794933290297 2.5262135349963115 -5 2 -2
438 49 2 -0.9835703980148511 4.476817814478778 11.057636731584811 5.463744403393592 4 -4 -2
14 2 2 -0.8883924988136839 4.248120644061784 12.111176123983823 8.28462032898921 -3 1 2
335 38 1 1.874364288919525 5.967084028553822 14.091638038901438 4.117041872539433 2 7 0
506 57 1 1.843732555541918 3.611543392122705 12.30829067746077 4.979802542127431 -2 -2 0
336 38 1 1.896455504248018 7.232619292516418 16.07730572401739 5.947683849962754 -1 -5 -3
421 47 2 -0.9348342207624297 7.178127961190917 17.640220677141528 5.912256052902209 -1 -3 3
26 3 2 -0.9974595215414369 6.211055132810401 12.50362582313245 9.736620242471378 -1 3 -5
410 46 2 -0.9554108682072494 6.485522635887021 12.660980032049933 7.1723500199944965 4 -3 3
460 52 1 1.561104673040295 9.60285856857947 13.914708171976592 2.150747312243119 5 0 -3
11 2 1 1.712304424142079 9.447453461694963 14.257019555610732 7.169912524543552 3 7 -3
348 39 2 -1.00383340126594 10.2141081674519 12.718573206509314 10.24005408025207 -4 1 3
416 47 1 1.868891890787334 9.412493223885107 14.100174457274244 10.279867564178183 -1 3 -9
477 53 2 -0.9361420218174694 10.316604253298959 10.320577059076392 3.801239942533833 2 8 3
491 55 2 -0.7890945776473025 10.346967545483594 12.986946742537695 3.424545702785263 -6 1 0
72 8 2 -0.8604247136343063 15.238045860720911 15.775849798694077 6.5463043986585605 0 -3 -4
191 22 1 1.79328052001407 14.185815153997988 14.943522267839215 5.587492940690865 -3 -1 -3
304 34 2 -0.9402437697132321 13.972015753503944 13.510685634408748 6.254574727208674 6 3 0
67 8 2 -0.9066091702047333 12.881984062464204 15.86247787673649 5.572103448756983 -3 -3 -5
384 43 2 -0.9197294909495042 12.271230727856404 12.019110013847794 4.79654146113629 7 -1 2
533 60 1 1.933432387448511 13.631111426257215 12.013205012820997 5.729148494386762 10 -7 3
238 27 2 -0.9146908441547051 14.78662440546209 14.67591877721581 4.016084807156551 3 -6 1
12 2 1 1.811250914706266 11.715636662543194 16.211297874737326 6.604823061058788 -2 2 1
58 7 2 -0.9283758540665681 12.43730820140937 17.071656314296327 7.804210186170177 2 1 1
235 27 1 1.899995114023924 14.254999658221168 14.892437124596814 2.5456874017322972 -6 6 -6
451 51 1 1.978262429199387 16.54199151125365 11.468224199257364 5.158050134971502 4 -1 2
423 47 2 -0.9769064199673504 14.97502656780925 11.530758206370589 4.987356986694394 -1 6 6
412 46 2 -0.9328951304949722 16.14035069252963 15.08707832311572 8.94809858606503 2 -1 -3
200 23 1 1.945586687616728 11.472394032209587 16.209052893548026 2.1814995659316447 0 3 -2
167 19 2 -0.8576212193218808 11.02371336584989 14.771076839665662 6.9113980729553335 -4 3 1
327 37 1 1.837379026207028 11.27206080496562 11.610237011465639 3.6077035895263663 1 0 6
372 42 1 1.930626990975913 12.127377969399872 17.598371624452756 9.259518182071865 5 5 -2
387 43 2 -0.9648469986832503 16.448413812856984 17.423257289971126 3.0503918717472716 2 3 -9
80 9 2 -0.9807006782348722 12.941943512904002 15.76483806355083 2.6225742123605675 -7 1 4
441 49 2 -0.9211496241393241 12.146908283815746 11.285584020121837 2.296096461023071 -1 0 -3
103 12 2 -1.020722188381439 13.560464097585855 11.36879670511018 9.516747394437525 4 7 -8
303 34 2 -0.9953890389750215 13.30464282590963 11.077691755965644 6.961935482828248 6 -1 4
2 1 1 1.875636846571794 16.5352323748714 15.701829630266312 7.525622058910469 0 1 0
456 51 2 -0.927414070270751 10.719730035520591 17.32871647702223 5.961026335920258 -4 -3 3
532 60 1 1.845045297322944 16.686044834683535 13.865065908943063 9.890658464414622 5 0 -3
426 48 1 2.025170546451623 12.749235091472647 10.630016076073149 8.37256866576988 0 -6 6
403 45 2 -0.9717693605793176 10.593702483390018 16.554317256288037 3.4539392790035337 -2 -2 -5
527 59 2 -0.9720691672569055 11.194194592597194 10.913711803442459 8.64437386178517 -4 -1 0
157 18 2 -0.9769972507200236 16.900677392941446 12.233529475850261 6.549576126458977 -3 -2 1
561 63 1 1.89327302703838 15.892229559574082 17.16075177251393 1.5678810954132603 -2 2 2
400 45 2 -0.9378958989961169 15.316565676407132 15.65257281824551 1.6005228794347315 2 4 4
471 53 1 1.816226765960569 10.46305400823166 17.789061948340873 4.4436328575163815 1 0 -3
6 1 2 -0.9387400224241975 14.0387600888744 13.578820704167786 1.5880630173037156 -2 1 -8
482 54 2 -0.8700117085861842 10.890582409282382 14.881691133891122 1.5008649251429378 9 6 3
473 53 2 -0.9588901179362583 12.048462107850874 16.259643133972077 10.088834840230424 -2 -2 1
188 21 2 -0.9867372763120106 17.121854868814204 12.332751702551212 3.9503932661633874 -1 0 1
555 62 2 -0.8741150704327982 17.171383696384815 17.195381422102965 7.781633631448301 -2 -4 4
197 22 2 -0.9538006048044421 23.86608036631604 18.030633130080723 4.883278921459153 1 -1 6
169 19 2 -0.9366689149838165 18.629441353188255 13.977605489774367 2.3450662994919242 -3 -4 3
465 52 2 -0.9942658722632894 19.415639335529903 12.531617547408391 7.028202499926401 9 -3 8
282 32 1 1.9596176212422 17.949170304687783 13.097878173023352 7.335326475144909 -1 2 -2
390 44 1 1.982594802689781 19.20597538535099 18.053455093915705 4.381054264967792 5 0 -1
495 55 2 -0.9678235385535283 17.505343503182374 14.588259432081681 6.942189504730468 -1 5 6
182 21 1 1.910010819609591 20.682186093806763 15.466172131747324 4.6111293788627234 -5 -2 3
275 31 2 -0.993815280304774 19.530185973877074 16.503338569328434 4.619840190660192 -1 3 1
301 34 2 -1.013005257212617 23.18044463733569 14.720064366073624 8.42532923075895 -3 -2 1
485 54 2 -0.9395589579602037 20.995155685885656 11.279654800723035 5.434874301039129 -2 -1 -2
165 19 1 2.002773879259175 22.882370083134525 13.211922720754684 7.964950506247388 1 -1 3
122 14 2 -0.9451740145902887 20.959466691965723 15.18799629795218 3.002817464459288 -5 -1 0
192 22 1 1.841442280512706 23.557152591500312 16.50986992596249 5.280871833645085 1 3 2
93 11 1 1.881455537075341 20.05522844552513 14.57629713063037 1.8379643147280071 -2 0 -1
443 50 1 2.019388869945308 20.66999033114461 12.747911564078983 6.083806683223979 3 3 2
203 23 2 -0.918798843088941 21.98671219178852 12.438136822643596 9.026789088076224 3 -4 2
557 62 2 -0.8868448290192736 22.80745758698128 11.865627879312868 2.5668620511081945 -1 -1 3
271 31 1 1.776192132296631 23.431417301123645 16.26540542820217 8.229763927301288 4 -2 -4
77 9 2 -0.5328953182226721 20.145378452301387 15.46506266443767 8.70705395972319 -4 -7 -9
132 15 2 -0.9104451166473633 17.729123496582112 13.12364936567439 8.929337365309973 -2 -1 -3
490 55 2 -0.9878086800433957 20.34258328406618 13.949232955826078 5.087767684705371 3 -8 0
33 4 2 -0.8804893944039888 22.154156395168194 17.1948737133458 8.367617289592754 0 -3 -12
461 52 1 1.881947215076219 17.96250420587627 12.54267746974987 2.583198935840074 1 -9 3
92 11 1 1.577222987167984 20.685700790839142 16.919206989795484 9.114369996936821 -1 -2 0
347 39 2 -1.060014848300365 22.00388162560354 13.228214731570773 6.690172759164055 3 -4 -5
69 8 2 -0.7865058211013615 19.60058126448437 18.072296897331555 8.554879062050325 3 0 -3
494 55 2 -0.9709827919953049 21.9615154388689 16.188195369813403 5.285267692089182 -2 -4 -5
564 63 2 -0.9166453831568019 19.04390193402334 11.331534730303003 2.6452342940107263 -7 6 4
525 59 1 1.751242633664256 17.981002292493308 18.20297411280478 8.788881687237117 1 -7 2
392 44 2 -0.9874437593647711 -1.2292863263144915 8.390485406893339 10.297784883746553 3 -7 1
269 30 2 -1.004163796458765 -0.6505685581899514 6.8372422363468255 14.753180756283102 4 7 -3
95 11 2 -0.9849860908571554 1.3325432248740343 5.761159296274862 16.06290742831124 11 4 -9
287 32 2 -0.9743779480281357 -0.7036326382071496 4.267743460591804 15.472824400912259 1 2 -10
345 39 1 1.901723743938534 1.7206353634728329 7.094182854930531 11.015430268663359 -2 5 -3
83 10 1 2.012378945580639 -0.25841697154595833 5.806452479163024 15.871350256974333 -3 -2 -1
101 12 1 1.966812381556903 -1.0819078301035914 7.608831466351706 11.689842685207905 5 -1 2
288 32 2 -1.004554507020422 -1.1182334141769967 6.155831039491273 17.139775636866283 -5 4 -4
195 22 2 -0.9667380525776256 0.3188234016968443 6.789299490121046 11.660209465082545 -6 -5 -3
230 26 2 -0.9391135720291354 2.604038274599036 5.782416938109412 11.221828871477607 0 -1 3
397 45 1 2.045017458584798 2.6943312255535092 5.189691163933172 15.451354892110146 5 -2 3
285 32 2 -0.9334629758404854 -1.0481007446580954 8.619694786061576 12.940327139535515 -2 -1 3
321 36 2 -1.07821124964178 -2.5838230051259186 3.963749979896116 11.906043426030356 4 0 2
152 17 2 -0.9979115385889673 2.4019621657020753 5.075109916623608 13.941508804913063 0 -3 0
563 63 2 -1.030972166787624 2.5704819871025606 8.302345067983154 11.572462387102455 7 1 0
569 64 1 1.897274055463656 -0.9923427183249767 8.377110558244347 14.531482194427603 9 -2 6
328 37 2 -1.049045923848637 -2.2750888903220914 6.613175302479158 11.77142932540653 6 3 -6
41 5 2 -0.8997827309895148 -2.3713807177233006 8.838738018521216 15.245800103027499 0 -5 8
264 30 1 2.018407449546437 -1.4029582131403435 2.9531820364696184 11.841943694097658 -3 -6 -1
524 59 1 1.948260808916626 -1.5672007988811556 5.922882685757619 18.714316683064915 1 -10 2
281 32 1 1.879106853288709 -0.9105073040843301 2.8571281321070754 14.824279893771283 3 6 -2
369 41 2 -0.92466209545364 0.2784434141579939 9.245422954585456 15.00138209078932 5 -1 0
98 11 2 -0.912350638777111 -0.795327517274679 9.558369997418662 18.33942216730215 -10 -2 -3
409 46 2 -0.9263601565073348 2.971082769555447 3.763516394888263 16.116052016084243 4 5 3
322 36 2 -0.922045997839918 -0.6260379685837933 3.003627754517964 13.23163742722892 5 -10 4
521 58 2 -0.9607971351707173 -0.39771495505988996 3.3851919571187605 10.637737585043048 4 1 5
100 12 1 2.025756764200123 -3.1918235322354094 5.393768745094335 12.224598288090554 -2 6 -2
516 58 1 1.860918128649702 3.1238807896874965 4.904646429961223 12.515912412567891 -6 0 0
151 17 2 -0.9606022898224528 1.4754940765111106 8.0589441597362 18.544949998335486 1 -7 -4
145 17 1 1.937397265140219 2.9882599493026705 7.727753667106471 18.78666041216491 -1 0 8
455 51 2 -0.9183031620034364 -2.5139020413052906 2.5188162736309296 15.023084456033734 8 6 1
463 52 2 -0.8963808898529896 2.8646798936363176 3.366324194329561 12.125804517218482 -1 -4 -2
309 35 1 1.908034098643792 3.3682215613900333 2.441448649283297 10.898767232070936 -5 0 -1
202 23 2 -0.8867541899326111 0.24155874320942905 2.4790584454024667 18.109892491120156 3 5 3
472 53 2 -0.936339687986994 -3.328690912145393 2.5431147073776574 17.658598024492957 -7 3 -3
187 21 2 -0.9276311520783543 -3.1060450494369993 6.137434854982632 18.998574648606038 0 1 3
406 46 1 1.90344025492499 3.383202199683538 9.510097345774714 10.944147588068077 6 2 7
396 44 2 -1.038319602556967 -3.377468496558987 5.645054422781234 13.77896752015716 -1 -7 8
529 59 2 -0.9389937694488776 6.21683256913 8.87707637636548 18.96567070841664 0 -1 0
359 40 2 -0.984038940646271 7.205100762253011 5.630059183266413 17.64253488189385 7 -9 0
399 45 1 1.951121407371178 8.430935700908133 5.4096949084506525 14.410994369992688 -6 -2 3
486 54 2 -0.9313070063028229 4.978127108240425 9.176267367947 10.664847833546784 -3 -8 -4
248 28 2 -0.9512832377169744 6.059891255586766 7.520447158277336 16.41106959734426 -2 2 3
9 1 2 -0.8640658391057071 10.020936139272905 5.404042441799082 13.99739822801954 10 -1 8
139 16 2 -0.976713763495389 4.730696526154741 5.160462939424574 12.651660808176555 0 -3 2