ITEM: TIMESTEP
0
ITEM: NUMBER OF ATOMS
576
ITEM: BOX BOUNDS pp pp pp
-3.1662119372314077e+00 2.3751789648828723e+01
2.4397297797306008e+00 1.8145847931862118e+01
1.5469184683713184e+00 1.9038659243222867e+01
ITEM: ATOMS id typelabel q x y z
366 O -0.965983 0.607867 4.41596 5.38715
470 Si 1.8525 2.70071 7.96002 5.95622
315 O -0.984294 -0.605011 6.50308 4.56756
290 Si 1.9739 -2.09717 6.03166 4.90153
474 O -0.930865 2.15657 9.19111 4.96514
175 O -0.936155 1.48058 6.88593 6.00446
377 O -0.955256 0.318674 8.9799 3.08445
75 Si 1.94972 0.824408 5.93773 4.90461
402 O -0.938603 -1.12579 4.30689 8.51578
488 Si 1.96332 -2.02274 5.48894 7.90656
360 O -0.993084 1.89439 5.87854 3.74678
220 O -0.91009 1.47118 4.40196 8.24468
408 Si 1.87206 2.83688 5.26113 2.59149
46 Si 1.91305 0.253768 3.61959 8.9227
124 O -1.01304 -2.22609 5.37825 6.31794
210 Si 1.88252 -1.88956 8.27211 8.91226
38 Si 1.91074 2.16016 8.87596 8.73827
314 O -0.918201 3.03582 8.48857 7.40879
419 O -0.982745 -1.38525 6.88961 8.25876
306 O -0.887279 -1.76074 9.3524 7.71013
401 O -0.913647 1.77439 7.61259 9.66296
118 Si 1.85048 0.747635 9.73945 4.41702
201 Si 1.78424 3.09504 4.16025 8.16133
364 O -0.947288 0.819009 9.54249 8.10662
231 O -0.900495 -0.324572 9.52348 5.57055
60 O -0.928163 -0.174887 3.04437 3.23029
352 Si 1.81825 0.547077 2.99718 4.67253
168 O -0.939105 3.05586 9.79544 9.61052
536 O -0.917137 -2.55106 4.74127 4.00981
123 O -0.897849 1.82896 4.22043 1.84469
380 Si 1.81342 -0.392677 9.99556 7.12856
300 Si 1.80116 0.31412 3.56916 1.78016
432 O -0.94208 -0.0984643 6.92899 1.69351
484 O -0.865981 3.5388 3.32865 6.8575
249 O -0.990239 2.03926 2.61236 4.35997
40 O -0.951592 3.49694 3.47465 9.55587
199 Si 1.8564 0.325131 8.49333 1.56927
50 O -0.904787 3.30745 6.53119 1.62591
404 O -0.924487 -2.89613 7.4 4.81827
392 O -0.915027 -1.09241 8.64567 10.282
550 Si 1.87666 6.8961 3.9958 9.65574
311 O -0.879485 9.32988 8.08926 4.97001
173 Si 1.89273 5.71078 4.65003 3.55218
228 Si 1.79327 5.24622 9.87046 2.14623
464 O -0.916888 8.75481 6.15359 2.14524
553 O -0.955202 5.87356 6.89112 6.88583
289 Si 1.84177 9.71501 8.93781 3.67791
186 O -0.936763 8.76451 2.52231 4.45409
57 Si 1.91876 9.68624 7.9787 6.60706
558 O -0.939594 8.48675 4.00486 9.91933
131 O -0.941597 8.2062 4.26425 6.22047
498 Si 1.98643 5.54449 7.13985 5.35693
111 Si 1.78565 7.82646 9.60063 8.63134
324 O -0.90439 3.903 9.00591 2.44332
381 Si 1.89512 10.0565 3.82357 9.58545
422 O -0.949464 6.32671 4.99224 8.55929
273 Si 1.97229 9.46954 5.07217 6.79678
476 O -0.873777 3.82939 5.60845 7.96634
411 O -0.972102 3.92276 7.21853 5.30551
180 O -0.957175 6.14843 8.62926 5.14153
107 O -0.970922 9.12848 6.55568 7.09504
278 O -0.974239 5.13463 7.22273 9.46409
239 O -0.928001 4.14734 4.52155 3.14142
227 Si 1.88428 7.58197 2.98821 5.43213
493 O -0.875225 6.26361 3.51162 4.58576
256 O -0.949505 6.05559 6.08128 4.30508
373 O -0.975115 6.57376 4.63789 2.21085
35 O -0.943356 8.54338 9.19692 2.59164
236 Si 1.87535 5.32082 6.22996 8.23241
501 O -0.898058 8.92314 9.06019 7.48433
420 O -0.924989 7.36494 8.38242 9.58885
163 Si 1.76938 6.22498 10.1706 5.03321
27 O -0.922552 6.48739 2.46435 9.41678
13 O -0.989068 10.0587 4.27436 8.03297
497 Si 1.7687 10.278 6.64913 1.86954
529 O -0.94652 6.33173 8.84189 1.57616
570 Si 1.90337 12.8671 5.60971 2.64221
91 Si 1.93665 12.4031 7.74224 7.92905
162 O -0.917055 12.824 5.45146 4.19688
370 Si 1.81137 11.9202 4.41855 5.09301
170 O -0.954922 13.5881 6.89905 7.32485
296 O -0.902046 15.0883 5.35733 5.86388
405 O -0.917685 15.7866 7.95511 6.33075
136 Si 1.84833 15.1403 6.64526 6.89563
357 O -0.888175 15.921 6.0185 8.13689
295 O -0.873154 15.7354 8.0306 3.71768
45 O -0.934842 12.8943 9.10844 8.622
479 Si 1.88268 14.4591 3.85435 6.24925
171 O -0.940606 12.8732 3.9046 6.23515
382 O -0.985789 11.2279 8.0992 6.87373
112 O -0.948167 11.6854 6.84817 9.09654
59 O -0.878745 15.9254 3.94569 3.0889
487 Si 1.83163 15.9669 4.48031 8.71769
104 O -0.962216 15.0593 3.61169 7.72036
320 O -0.926812 11.3195 3.19154 4.21698
43 O -0.954942 13.3289 7.0987 2.28156
55 Si 1.76233 16.2271 7.88441 2.17727
155 Si 1.79797 16.6867 8.3003 5.06521
284 O -0.900159 11.3268 5.42712 2.11986
49 O -0.934665 16.4837 6.32449 1.82169
5 O -0.94391 10.6084 5.18987 5.6482
446 O -0.907095 10.6031 7.91715 2.82631
468 O -0.956913 14.8796 2.84392 5.14688
84 Si 1.84961 16.0824 2.6985 4.12031
418 O -0.957276 13.2884 2.81145 9.99218
492 O -0.95618 13.6314 4.51316 1.79374
549 O -0.901781 16.9206 9.94997 5.12101
232 O -0.943254 15.2942 4.51067 10.1777
257 O -0.935855 19.5005 2.5268 2.93536
179 O -0.829306 20.4735 4.60192 1.65758
198 O -0.945559 22.8978 8.50854 2.748
126 O -0.910031 21.9553 4.25868 4.36547
342 O -0.916835 17.5523 2.64671 4.81103
330 O -0.881121 23.6576 10.2303 4.59791
48 Si 1.7927 20.3207 6.30268 1.64124
302 O -0.891889 20.9381 9.09398 9.12399
268 O -0.877288 19.9394 5.59136 5.45514
417 Si 1.70617 18.8928 9.66028 2.63235
374 O -0.920015 21.7161 8.61279 5.26438
4 O -0.910727 21.6461 4.42516 7.00763
36 O -0.994922 21.1121 4.85967 9.49178
237 Si 1.70389 17.0621 4.93076 2.36947
137 Si 1.8974 21.8581 5.4722 8.26043
120 Si 1.82148 23.3354 3.53906 3.8013
509 O -0.930411 17.9633 7.33077 4.9681
214 O -0.918508 19.0713 7.35229 8.96904
331 O -0.565119 20.0712 9.22851 1.67454
260 O -0.952612 21.3719 6.93793 7.81424
61 O -0.930751 23.4453 5.43513 8.63921
530 O -0.913905 17.5158 8.89722 2.20945
158 O -0.957827 18.1325 5.10382 3.61768
436 O -0.911058 19.7839 8.97002 6.83864
574 O -0.895756 19.3708 9.24794 4.14233
159 O -0.972542 23.5187 8.28429 9.35808
354 Si 1.88379 20.3572 9.49098 5.43185
425 Si 1.86779 20.9183 4.25491 5.62284
110 Si 1.88087 20.2463 8.07827 8.09927
542 Si 1.88053 22.336 9.03778 10.102
16 O -0.939625 19.9691 3.00997 5.54753
242 O -0.964248 19.9905 6.73394 3.13749
332 O -0.848186 23.1369 2.92848 2.23657
146 Si 1.79186 19.017 6.27154 4.31471
531 O -0.929483 17.3979 3.84028 8.68824
507 Si 1.76892 23.068 8.6767 4.41836
391 O -0.945756 1.81833 13.2155 8.53902
274 O -0.912835 0.336749 15.3085 7.59281
156 Si 1.90949 1.78673 12.0438 2.92246
575 O -0.909367 -0.337847 14.3903 4.51312
299 Si 1.85709 0.55778 16.8457 7.14084
554 O -0.929626 2.20128 16.8315 6.93504
3 Si 1.86252 -1.52516 12.6957 7.59341
250 O -0.903894 -0.768542 13.3611 8.85355
29 Si 1.95345 -1.87701 13.9764 4.84264
53 O -1.03538 1.9308 15.7877 4.0641
307 Si 1.9468 0.762142 14.9339 3.44192
140 O -0.998453 -1.94373 13.6745 6.40047
144 O -0.919319 0.81443 11.3021 3.92682
386 O -0.904686 -0.523124 11.6105 6.99216
190 Si 1.85419 0.572796 14.2254 8.81087
350 O -0.928892 1.33242 13.6082 2.77813
208 Si 1.97489 2.88891 17.031 3.94339
211 O -0.882662 2.97868 12.8866 6.14815
94 O -0.941621 -0.158104 15.6934 2.32925
70 O -0.958692 3.20877 11.9328 3.59696
442 Si 1.89826 3.16193 13.1242 7.72728
189 O -0.873493 0.0144163 17.4989 5.7598
221 O -0.944322 -2.18904 12.632 3.98406
224 O -0.972651 -2.30983 10.703 2.22034
86 O -0.93888 -2.83055 15.1733 4.45254
116 O -0.940469 -2.55243 16.6806 9.31359
196 O -0.942792 -2.94654 12.1574 8.01703
212 O -0.953489 0.201579 17.8453 8.31971
481 O -0.94654 0.819066 15.0467 10.1444
76 O -0.925337 -3.02554 16.3794 6.76301
344 Si 1.84888 -3.01002 11.3591 3.47465
448 O -1.00914 3.54273 17.1755 2.51969
197 O -0.909658 -3.12851 17.9254 4.60987
517 O -0.924749 6.45056 10.3357 8.18737
106 O -0.932753 3.97121 16.9513 5.13937
176 O -0.948562 6.35052 15.1893 7.28802
439 O -0.876733 5.99845 10.5641 3.45557
226 Si 1.87651 5.15888 15.5036 8.30017
523 Si 1.8115 3.6681 17.3793 6.63479
414 O -0.990026 5.02011 13.4596 4.79405
277 O -0.949349 8.66531 10.6494 9.54302
65 Si 1.85842 5.87152 11.8564 8.32088
413 O -0.947897 6.64836 15.4639 4.68016
526 O -0.877547 7.61344 10.8144 5.58345
73 Si 1.76311 7.56862 16.1231 1.97628
252 O -0.897937 8.66147 15.2396 6.37482
166 O -0.96222 3.91944 14.5463 7.92335
337 O -0.932555 7.4584 13.1288 4.64579
34 O -0.928057 9.13592 14.2156 8.86207
540 O -0.926252 8.39614 14.9217 2.6332
71 O -0.940774 5.77276 15.6423 9.77666
496 Si 1.77754 10.1395 11.1269 9.96454
499 O -0.920873 6.14897 16.8708 2.25581
365 O -0.934678 4.5924 16.956 7.88455
453 Si 1.76652 7.86243 12.3773 6.02761
431 O -0.895032 9.28136 12.8784 6.60254
491 O -0.909606 10.1109 12.9264 3.2664
449 O -0.960116 5.99555 13.8118 2.4772
438 O -0.876952 4.8241 10.9578 5.55598
14 O -0.929897 4.30609 12.0384 8.10311
335 Si 1.94617 6.2682 13.9846 4.03386
506 Si 1.7949 3.99537 12.2592 4.9868
336 Si 1.88187 7.17787 15.8605 6.11323
421 O -0.960177 7.14822 17.4573 6.31003
26 O -0.910888 6.17124 12.492 9.83894
410 O -0.939237 6.81821 12.59 7.25934
460 Si 1.88161 9.56505 13.9109 2.11263
11 Si 1.79381 9.64171 14.2699 7.30528
72 O -0.900987 15.3686 15.7746 6.29921
191 Si 1.88314 14.2221 14.9312 5.60386
304 O -0.941979 13.8801 13.5587 6.36381
67 O -0.900539 12.8596 15.7909 5.62653
384 O -0.920204 12.1855 12.3765 4.80887
533 Si 1.89315 13.4217 12.136 5.82177
238 O -0.947908 14.5553 14.4244 4.09694
12 Si 1.77245 11.8137 16.3226 6.74531
58 O -0.939822 12.534 17.237 7.84266
235 Si 1.85181 14.1981 14.5129 2.54577
451 Si 1.84578 16.2795 11.4175 5.2175
423 O -0.922654 14.6666 11.4308 5.07583
412 O -0.892991 16.1077 15.0451 8.79454
200 Si 1.92451 11.4519 16.1252 2.35256
167 O -0.881768 11.1195 14.9302 7.35442
327 Si 1.75172 11.2183 11.7573 3.68618
372 Si 1.88144 12.2536 17.4725 9.34784
387 O -0.954409 16.1277 17.1251 3.12826
80 O -0.932084 12.9288 15.5533 2.59398
441 O -0.921083 12.1168 11.3394 2.31846
103 O -0.958419 13.3974 11.5673 9.69821
303 O -0.894218 13.1801 11.2009 7.15299
2 Si 1.81468 16.6357 15.6738 7.37931
456 O -0.890587 10.6354 17.2915 6.12209
532 Si 1.81408 16.6711 13.8905 9.90238
426 Si 1.83043 12.6352 10.7196 8.57047
403 O -0.933653 10.6196 16.4057 3.69062
527 O -0.899262 11.0194 11.0796 8.63901
157 O -0.908322 16.7015 12.0865 6.64436
473 O -0.907899 12.4027 16.0336 10.0776
561 Si 1.90584 15.7679 16.7917 1.62277
400 O -0.9301 15.3333 15.2371 1.6494
471 Si 1.80496 10.3117 17.7116 4.56642
6 O -0.939068 13.7875 13.2521 1.59616
482 O -0.965393 10.7387 14.909 1.65076
188 O -0.936241 16.9137 12.3946 4.04908
216 O -0.912721 10.7161 18.0583 9.55936
477 O -0.877138 10.5425 10.344 4.14685
169 O -0.876555 18.3672 14.0033 2.35389
465 O -0.902881 19.2443 12.4326 6.96517
282 Si 1.89253 17.7989 13.0093 7.40994
390 Si 1.87102 19.0575 17.9265 4.48079
495 O -0.916719 17.5779 14.4722 6.82802
182 Si 1.76255 20.4155 15.2827 4.45883
555 O -0.932154 17.3555 17.0619 7.66671
275 O -0.876394 19.2681 16.3275 4.75122
301 O -0.990598 23.0047 14.6032 8.3841
485 O -0.958939 20.6437 11.0341 5.39248
165 Si 1.85373 22.7026 13.097 7.88147
122 O -0.913681 20.602 15.2286 2.82738
192 Si 1.78365 23.3684 16.454 5.20294
93 Si 1.82519 19.7812 14.5235 1.64133
443 Si 1.89868 20.483 12.5578 5.94331
203 O -0.86628 21.6455 12.3053 8.83616
557 O -0.890861 22.4478 11.9006 2.77507
271 Si 1.90366 23.3275 16.1793 8.21909
77 O -0.57546 19.9666 15.257 8.31027
132 O -0.943253 17.6152 13.035 8.98527
490 O -0.909218 20.0568 13.7502 4.89113
33 O -0.931216 21.9392 16.9493 8.42315
461 Si 1.85169 17.6254 12.5768 2.64535
92 Si 1.72084 20.5175 16.59 9.0005
347 O -0.964784 21.8824 13.0666 6.48609
69 O -0.823995 19.6428 17.9175 8.61563
494 O -0.88545 21.807 16.0869 5.08601
564 O -0.88444 18.6972 11.3047 2.47753
525 Si 1.80898 18.0165 18.0334 8.76538
385 O -0.954057 17.7509 17.5828 10.2839
269 O -1.00528 -0.524821 7.00165 14.6375
95 O -0.953027 1.41111 6.20936 16.2422
287 O -0.967588 -0.085409 4.55234 15.3742
345 Si 1.84161 1.97694 7.32272 11.2825
83 Si 2.00306 -0.129344 6.07015 15.7889
101 Si 1.883 -0.924428 7.80291 11.6246
288 O -1.01441 -1.20309 6.3667 16.935
195 O -0.980534 0.490475 7.17228 11.802
230 O -0.923647 2.85536 5.99736 11.5147
397 Si 1.85122 2.66745 5.43831 15.6153
285 O -0.916931 -1.26951 8.76453 12.8834
321 O -0.968977 -2.10594 4.01261 11.9154
152 O -0.92755 2.42945 5.31925 13.9911
563 O -0.958839 2.78117 8.5842 11.8894
569 Si 1.93428 -0.905766 8.54922 14.4385
328 O -0.917157 -2.09269 6.62734 11.4836
41 O -0.94687 -2.2187 8.93163 15.3058
264 Si 1.91143 -0.738959 3.1281 11.7156
524 Si 1.87065 -1.30761 6.09891 18.5006
281 Si 1.90811 -0.353085 3.05332 14.6933
369 O -0.951218 0.337007 9.38098 14.9347
98 O -0.944462 -0.727655 9.33802 18.2115
409 O -0.870236 3.06025 4.04586 16.3704
322 O -0.920957 -0.0430743 3.27228 13.163
521 O -0.926092 0.228142 3.67877 10.5552
100 Si 1.86653 -2.86031 5.39244 12.1548
516 Si 1.86085 3.33244 5.03105 12.7203
151 O -0.895105 1.76888 8.54224 18.3361
375 O -0.916114 -0.863592 4.58596 18.8375
145 Si 1.78749 3.28777 8.105 18.7495
455 O -0.919226 -2.01385 2.80397 14.9021
463 O -0.916665 3.09251 3.53007 12.186
363 Si 1.80518 -2.12273 10.0958 18.2546
309 Si 1.84331 3.38446 2.60524 10.9357
202 O -0.91917 0.457451 2.44474 18.0731
396 O -0.951922 -2.94794 5.83129 13.7254
472 O -0.920656 -2.84771 2.58198 17.3687
187 O -0.945753 -2.76169 6.54364 18.9791
359 O -0.95226 7.19652 5.97388 17.5215
399 Si 1.91088 8.73726 5.34182 14.447
486 O -0.901332 5.16538 9.29336 10.959
248 O -0.954401 6.29965 7.6195 15.8264
9 O -0.901506 10.2451 5.0467 13.9002
139 O -0.910756 4.92249 5.36731 12.9983
318 Si 1.93535 6.3804 5.65324 12.31
183 Si 1.9573 7.63098 7.19252 16.5281
243 O -0.954861 8.2421 8.38054 17.4062
512 O -0.925469 3.96723 6.36662 15.7388
245 Si 1.81937 9.8259 8.73196 11.7894
545 O -0.941918 8.63758 3.96082 18.2591
447 O -0.956546 7.62758 5.3547 13.3029
291 Si 1.80469 4.35878 3.03036 16.4416
206 O -0.908805 5.73073 3.75347 15.9371
215 O -1.00036 8.34356 4.11088 15.3531
559 Si 1.90995 6.10077 7.99476 10.4871
266 O -0.946038 8.55204 6.67741 15.3284
30 Si 1.80706 7.11221 3.10723 15.4685
21 Si 1.90347 7.73102 5.20215 18.8212
24 O -0.944525 8.35431 9.2471 11.976
133 O -0.97499 4.4644 8.94744 14.8521
388 Si 1.8725 4.69723 7.78023 15.9292
8 O -0.92996 9.97889 7.32804 11.0611
88 O -0.949825 6.295 4.58813 11.0789
44 O -0.986689 6.84044 9.85316 13.9969
367 O -1.00628 6.45482 7.10707 11.7094
406 Si 1.84025 3.61425 9.74523 11.1236
254 Si 1.86343 7.78448 9.30543 18.6703
457 O -0.899715 4.24505 8.30681 17.4505
343 Si 1.91253 8.81937 2.48347 17.6913
415 Si 1.98208 5.47371 10.1413 14.6879
121 O -0.998571 6.98669 2.46789 14.0017
358 O -0.956434 15.2504 4.27475 17.2163
222 O -0.981314 12.9019 8.44505 13.528
475 O -0.876813 13.1384 6.90997 17.2723
528 O -0.906471 14.6412 6.50462 12.9958
294 O -0.967139 11.4661 7.30364 15.3484
82 Si 1.93772 11.5686 8.51413 14.4044
572 O -0.943321 15.527 4.59491 14.5091
568 Si 1.89935 14.3276 5.01106 13.5939
556 O -0.971524 12.9552 5.06595 14.4104
469 Si 1.89982 11.5285 4.43357 14.7256
308 Si 1.91454 16.2783 4.23579 15.9102
148 O -0.915584 11.2551 4.98615 16.2399
147 Si 1.92806 14.1147 3.5566 18.0884
181 Si 1.89374 13.6024 7.57452 12.3861
54 O -0.902701 13.9693 3.94509 12.3757
233 O -0.949647 14.353 8.35884 11.2151
259 O -0.966445 12.4707 6.69305 11.6328
244 Si 1.86085 14.4404 3.37431 10.9392
519 O -0.978693 11.5589 2.90144 14.3837
246 Si 1.82374 11.6029 6.47148 16.7059
543 Si 1.89257 15.8239 8.95053 11.1023
429 O -0.974304 12.8927 3.11952 17.1537
47 Si 1.78316 13.5451 7.95799 18.4637
548 O -0.919772 12.6 9.29062 18.259
394 O -0.981816 16.3351 9.20291 12.62
18 O -0.904195 11.5965 9.80528 15.493
319 O -0.833018 15.1067 8.41059 18.6068
164 Si 1.84371 11.2463 6.41899 10.6228
483 O -0.937335 10.5487 6.99256 17.8107
89 O -0.937078 10.6057 9.92134 11.0251
520 O -0.886417 16.7337 2.6984 15.6988
503 O -0.922499 10.8154 4.86195 10.5388
177 O -0.926096 10.3515 8.57077 13.3785
539 O -0.899671 16.9161 8.07403 10.3452
15 O -0.938296 22.3266 2.62226 15.3124
505 Si 1.92399 18.6379 4.81111 12.1515
79 O -0.912991 17.544 7.96775 16.57
292 O -0.959978 21.4776 5.42453 14.403
64 Si 1.81854 23.0392 7.71781 18.9069
142 O -0.899957 23.3856 4.77024 16.1054
204 O -0.963251 19.5502 6.57818 15.782
316 Si 1.84748 23.3433 8.71574 16.0904
262 Si 1.97025 21.4286 4.33214 10.9476
338 O -1.11767 23.6773 8.85844 17.774
160 O -0.948376 22.7839 7.26647 15.6549
96 O -0.985112 18.1423 5.90512 11.0549
323 O -0.953223 17.5616 3.59673 12.2968
313 O -0.93795 18.9212 5.61033 13.5247
334 Si 1.97819 20.6368 8.612 12.3852
229 O -0.939376 22.5558 5.36406 11.4694
379 Si 1.86185 18.1558 9.43318 16.2413
356 O -0.952373 18.9867 6.51912 18.2249
440 O -1.01425 20.5207 10.0436 12.9777
267 O -0.959538 22.0574 2.87811 11.0813
81 O -0.962224 20.603 7.68817 13.6662
74 Si 1.95202 18.304 6.55613 16.7578
108 O -0.917979 22.1771 9.77674 15.7544
279 O -0.941687 18.0249 9.61027 14.5993
97 O -0.92541 19.7019 9.4756 16.6377
37 Si 1.93862 20.1472 6.28829 14.3729
538 O -0.889104 21.6606 6.93087 18.5337
149 O -0.968133 19.3527 8.19172 11.4484
346 O -0.935452 17.4285 5.25634 16.2794
371 Si 1.85673 22.9233 5.83643 14.9874
310 O -1.03587 20.0753 4.25939 11.751
51 O -1.02254 21.8787 8.41264 11.4456
349 O -0.898929 17.8668 3.93081 18.9197
511 O -0.901229 19.621 2.44696 17.6894
280 Si 1.88951 18.3677 7.30571 10.4194
552 Si 1.80657 23.695 3.20094 15.906
272 Si 1.87178 17.188 10.2664 13.4356
424 Si 1.75417 19.4133 3.31689 18.9951
135 O -0.932434 1.82692 13.6152 17.3857
138 Si 1.85601 2.08164 14.7683 16.2337
544 O -0.577133 -0.996693 15.6826 13.9812
393 O -0.962161 1.81685 16.209 16.9615
66 Si 1.77479 -0.522037 12.1349 12.5227
19 Si 1.89023 1.94901 12.0597 17.4574
428 O -0.935647 1.16596 14.4835 14.9696
389 Si 1.73717 0.378291 14.9439 13.5882
459 O -0.909797 1.28342 15.8926 12.5952
153 O -0.965972 -0.652207 16.0475 17.2513
115 O -0.853998 -2.15803 11.4213 17.2874
407 Si 1.88104 1.85752 15.7894 11.1034
105 O -0.884667 0.111272 13.6427 12.6378
466 O -0.906955 -2.02763 12.302 11.967
462 Si 1.98103 0.534632 17.0448 16.9094
351 O -0.899854 0.89783 11.3932 16.3857
573 O -0.524276 0.419899 11.2758 11.5749
398 Si 1.78133 -2.47827 13.072 17.3703
547 O -0.948744 -0.420211 11.5849 14.0251
340 O -0.97756 -1.13484 17.3028 11.4075
427 O -0.984411 2.1014 11.2517 14.066
263 Si 1.96744 0.768853 10.9425 14.8528
433 Si 1.91454 -2.25975 16.3205 10.8805
22 O -0.946321 -2.15248 14.7126 11.0833
508 O -0.863894 -1.4573 13.9299 18.3757
161 O -0.934312 -2.53104 13.7046 15.8839
435 Si 1.96352 3.40612 11.8426 13.2722
141 O -0.953318 3.26784 14.9879 11.252
513 O -0.967134 3.36396 13.4543 13.2298
317 Si 1.98237 -2.94947 13.577 11.8843
150 O -0.930007 2.24834 17.2404 10.5102
489 Si 1.84116 -1.26757 15.52 18.6612
90 O -1.00706 0.46858 17.6948 15.4619
500 O -0.958262 1.70241 11.469 18.922
333 O -0.966924 3.36484 11.7141 16.749
7 O -0.939842 3.41111 11.1622 11.8298
576 O -0.923365 -2.68638 16.2308 18.9835
255 Si 1.94445 9.08699 11.6093 17.5868
329 O -0.958858 4.82118 18.0038 17.7897
378 O -0.922679 10.2575 15.0687 11.2115
454 O -0.953339 3.58699 14.924 15.7698
562 O -1.23611 7.59786 17.6832 16.6222
56 Si 1.84265 6.09969 17.0444 10.5141
416 Si 1.91087 9.39995 13.963 10.456
518 O -0.977777 9.02615 11.9197 16.0048
368 O -0.924078 5.76204 10.7173 16.1684
541 Si 1.98935 6.70354 12.9336 11.3248
445 O -0.947071 10.2367 17.9942 17.0256
355 O -0.958637 7.31828 17.0875 11.5216
480 Si 1.9308 7.88064 17.3994 12.9609
560 Si 1.90078 7.24433 16.0584 16.5835
23 O -1.02413 9.04938 11.1951 13.6163
185 O -0.965546 9.28415 13.721 14.1029
261 O -1.02451 4.73358 11.3267 13.9308
253 Si 1.99888 9.69916 12.2457 14.6051
114 O -0.958772 9.37494 17.9588 12.964
341 O -0.976241 7.02881 11.571 12.0958
305 O -0.932562 4.84228 11.0426 18.625
376 O -0.94502 8.01506 13.8027 11.244
434 Si 1.96894 9.10476 15.2117 14.5454
437 O -0.974982 8.59832 17.1874 18.8912
87 O -1.00142 4.5329 15.7601 13.4687
478 Si 2.02096 7.84484 10.4458 12.9316
225 O -0.872362 5.68317 13.1487 17.3157
193 O -0.982453 7.89247 10.8331 18.2148
99 O -0.942819 9.18843 13.0524 18.2818
129 Si 1.82919 4.91778 11.6775 17.16
134 O -0.994351 5.90298 15.8518 15.7728
219 Si 1.92166 4.47105 16.012 15.0107
113 O -0.977085 5.53363 13.819 12.0166
207 O -0.917337 4.77941 17.5353 11.3052
293 O -0.987215 8.51194 15.3767 16.0011
361 Si 1.96873 4.23309 14.57 12.4616
205 O -0.9526 4.58453 15.4103 18.4326
571 O -0.952242 8.03397 15.9081 13.6273
247 O -1.13139 7.08899 15.3243 18.0418
326 Si 1.70916 5.74334 14.3201 18.4096
42 O -0.904381 3.99838 17.5389 15.4183
348 O -0.9554 10.1744 12.5716 10.6482
154 Si 1.89982 4.69168 16.9049 18.9931
217 Si 1.93916 13.947 14.6777 13.1759
184 O -1.0034 14.4194 13.3516 13.9068
218 Si 1.87825 13.6453 15.5859 16.0039
209 Si 1.92503 14.6084 11.7872 13.7035
130 O -0.902394 12.3408 16.3323 16.7523
125 O -0.979276 15.2093 15.284 12.4664
143 O -0.961793 12.6606 14.4928 12.2873
223 O -0.937314 13.5582 15.6603 14.4095
339 O -0.971522 15.0652 16.3155 16.3359
502 O -0.930259 11.7664 16.9632 12.3192
537 O -0.977525 13.5835 14.1164 16.5891
467 O -0.982927 15.0371 12.0574 17.114
362 Si 1.93729 13.7397 12.803 17.5337
20 Si 1.77889 12.3121 11.2516 15.5414
52 O -0.951143 13.6665 11.0473 14.7338
504 O -1.20519 12.5621 11.7528 17.1783
128 Si 1.85469 11.7763 15.5759 11.4933
240 O -0.994125 14.1797 11.4367 12.169
286 O -0.965472 11.2979 12.2618 14.8174
172 Si 1.88069 10.8348 17.4539 13.5434
62 O -0.955934 16.1627 11.3793 13.958
514 Si 1.80032 16.5904 16.9363 16.4369
109 Si 1.97497 16.6152 12.1133 17.3043
298 Si 1.8676 11.9438 10.7331 18.3578
444 Si 1.90896 11.777 17.7032 17.4196
127 Si 1.91994 14.6463 11.6223 10.6697
258 O -0.973777 10.3937 16.1768 14.414
458 O -0.922216 16.9053 16.9078 18.0219
241 O -0.996301 14.6523 17.8857 18.7382
452 Si 1.81461 16.7994 15.205 12.6205
117 O -0.928764 15.5101 17.9283 11.3055
25 O -0.963467 16.6682 12.3664 18.8897
265 O -0.922066 15.3899 13.054 10.4899
17 O -0.930176 15.6625 10.4074 10.4154
31 O -0.977606 11.5773 17.4717 18.9456
68 O -0.985643 10.3657 10.7062 17.9776
194 O -1.0011 23.4919 13.9915 13.35
534 Si 1.89962 20.4565 16.8128 17.3147
353 Si 1.80122 21.7343 17.1155 11.6273
174 Si 1.90362 17.0829 17.9129 11.7246
213 O -0.960798 21.6286 10.9664 17.9574
28 Si 2.06845 20.5072 12.9976 14.9094
325 Si 1.87142 21.8692 12.2905 18.7855
32 O -0.884626 20.6472 16.4347 10.6185
78 O -0.917586 20.3423 11.6966 11.0489
39 Si 1.90829 20.9538 10.4642 16.5568
251 O -1.03145 22.8576 15.8462 15.0086
276 O -1.02651 20.3022 11.7135 15.7977
546 O -0.887942 17.6623 15.9439 15.7958
1 Si 1.93152 17.8195 14.3914 15.4105
567 O -0.979928 21.9017 16.9249 18.0239
297 O -0.946497 17.3509 10.7298 16.8322
85 O -0.913942 19.6868 15.5135 17.8977
551 Si 1.84142 23.3183 17.4922 18.5384
522 O -0.957399 23.2506 16.5149 11.6123
270 O -0.968108 23.0261 13.1735 18.0312
312 O -0.903751 17.3941 16.6823 12.6885
383 O -0.88284 20.5583 16.6795 15.7258
10 Si 1.89988 21.7614 16.9432 14.7129
119 Si 1.89193 21.8027 11.9388 10.4077
178 O -0.936636 17.1873 14.3056 13.9232
102 Si 2.00833 23.2816 14.3191 14.8925
283 O -1.04894 20.2989 12.5886 13.4068
535 O -0.951772 22.6638 13.089 11.083
510 O -0.968449 19.3742 14.0422 15.3168
234 O -0.995025 17.1144 13.3946 16.4779
395 O -0.890112 21.2085 17.0791 13.1867
515 Si 1.94583 19.8144 11.3973 12.5352
450 O -0.864024 17.3732 14.5151 11.1902
565 O -0.933961 18.2536 11.0735 12.4655
430 O -0.953281 20.5656 13.188 18.6922
63 O -1.01363 21.9948 13.4326 15.2046
566 O -0.917787 22.6627 10.5814 10.452
ITEM: TIMESTEP
200
ITEM: NUMBER OF ATOMS
576
ITEM: BOX BOUNDS pp pp pp
-3.6600196267451643e+00 2.4245597338342478e+01
2.1569401655652953e+00 1.8428637546027414e+01
1.2375952424874921e+00 1.9347982469106743e+01
ITEM: ATOMS id typelabel q x y z
366 O -0.958889 0.535619 3.96798 5.23573
470 Si 1.90605 2.212 7.69239 5.64599
315 O -0.89665 -1.11343 5.83905 4.30749
290 Si 1.96314 -2.70411 5.69583 4.74397
474 O -1.03781 1.72285 8.85471 4.76224
175 O -0.902383 1.05286 6.55477 5.89158
377 O -1.00158 -0.0424971 9.15367 2.89897
75 Si 1.79196 0.418569 5.50323 4.78485
402 O -0.955762 -1.52389 4.26479 8.40245
488 Si 2.00805 -2.51831 5.34372 7.81244
360 O -0.949946 1.40083 5.72476 3.57649
220 O -1.00837 1.12759 4.17463 8.59781
408 Si 1.74939 2.51342 5.0188 2.57003
46 Si 1.94353 -0.229471 3.4026 8.9598
124 O -1.0446 -2.5246 5.30327 6.23551
210 Si 1.9445 -2.4635 8.19081 9.00264
38 Si 1.98556 1.87131 8.75464 8.46828
314 O -0.98386 2.48865 8.23087 7.12211
419 O -0.944178 -2.029 6.74005 8.39969
306 O -0.956701 -1.89316 8.95982 7.66099
401 O -0.987445 1.57692 7.60252 9.51601
118 Si 2.03417 0.457541 9.72833 4.25748
201 Si 2.01204 2.67803 3.94875 8.46351
364 O -0.961 0.605172 9.59414 8.03597
231 O -1.00614 -0.398734 9.82996 5.58391
60 O -0.866181 -0.73167 2.88009 3.17138
352 Si 1.77991 0.211202 2.592 4.48393
168 O -0.867668 2.82413 9.78142 9.28536
536 O -0.922826 -3.37281 4.41182 4.04078
123 O -0.794788 1.34651 4.14332 1.7275
380 Si 1.94281 -0.708273 9.90333 7.14451
300 Si 1.64736 -0.108369 3.28227 1.66235
432 O -0.865406 -0.910122 7.01271 1.71986
484 O -0.961037 3.11177 3.26805 7.09455
249 O -1.02741 1.51138 18.4131 3.77314
40 O -1.03765 3.14359 3.25598 9.80463
199 Si 1.65437 -0.104702 8.48175 1.48655
50 O -0.811426 2.8521 6.00169 1.32551
404 O -0.973623 -3.37617 7.13927 4.61595
392 O -0.949373 -1.62741 8.43853 10.3828
550 Si 1.84142 7.03262 4.11302 9.90735
311 O -0.816228 9.1375 8.0862 4.95224
173 Si 1.90472 5.44028 4.67105 3.48273
228 Si 1.55176 4.98254 9.40012 2.0282
464 O -0.889753 8.95519 5.71137 1.76501
553 O -0.948708 5.37617 6.33246 6.84184
289 Si 1.77848 9.58195 8.82822 3.51545
186 O -0.884574 8.86898 2.22225 4.63284
57 Si 1.77407 9.48317 7.93888 6.58482
558 O -0.926478 8.59282 3.73752 10.2279
131 O -0.876567 8.05791 4.18182 5.76985
498 Si 1.96429 5.16709 7.03572 5.40873
111 Si 1.81257 7.81066 9.56547 8.68729
324 O -0.845823 3.65177 8.54746 1.92078
381 Si 1.89769 9.99318 3.81523 9.42355
422 O -1.00886 6.47113 5.08778 8.88178
273 Si 1.78811 9.49446 4.77005 6.45669
476 O -0.973934 3.70521 5.15733 8.35693
411 O -0.980439 3.6151 7.01759 5.10425
180 O -0.892234 5.69963 8.52139 5.43435
107 O -0.816146 9.17529 6.30756 6.88746
278 O -0.991298 4.92733 7.10859 9.31755
239 O -0.973547 3.94498 4.44954 3.04886
227 Si 1.79511 7.42218 2.84627 5.21847
493 O -0.862967 6.21294 3.43063 4.29202
256 O -0.926214 5.79108 5.99266 4.3383
373 O -0.902114 6.36488 4.72643 2.14249
35 O -0.785311 8.49712 9.32337 2.44314
236 Si 1.97872 5.12528 5.85522 8.34916
501 O -0.947706 8.54259 8.86807 7.49637
420 O -0.900655 7.13912 8.34628 9.66972
163 Si 1.73685 5.71837 10.1573 4.90616
27 O -0.830439 6.48807 2.61724 9.38545
13 O -0.993299 9.81896 4.09044 7.83998
497 Si 1.86755 10.3505 6.59467 1.63591
529 O -0.7133 6.16868 8.41876 1.51527
570 Si 1.8495 13.041 5.4368 2.28995
91 Si 1.87241 12.4395 7.89453 7.76103
162 O -0.889946 13.0273 5.1554 3.881
370 Si 1.86626 11.944 4.31345 4.79835
170 O -0.972662 13.737 7.16082 7.19619
296 O -0.871973 15.1393 5.28736 6.00944
405 O -0.884252 16.1477 7.80338 6.33107
136 Si 1.82869 15.2097 6.69408 6.95309
357 O -0.790331 16.0004 6.01006 8.24332
295 O -0.829697 16.0344 8.19768 3.59148
45 O -0.903528 13.0339 9.20911 8.56003
479 Si 1.71432 14.7216 3.72771 6.15781
171 O -0.801327 12.9849 3.80131 5.9615
382 O -0.932356 11.0679 8.22315 6.9831
112 O -0.891548 11.8371 6.86993 8.86332
59 O -0.887366 16.2848 3.86798 3.32363
487 Si 1.5512 16.0947 4.39115 8.77039
104 O -0.789153 14.9913 3.46575 7.75741
320 O -1.01565 11.4363 2.99726 4.2237
43 O -0.82499 13.3926 6.98507 2.11261
55 Si 1.64696 16.5893 7.83914 1.84133
155 Si 1.81036 16.874 8.16358 4.91444
284 O -0.92019 11.421 5.45832 1.99968
49 O -0.92699 16.8644 6.26443 1.75433
5 O -0.961785 10.7373 5.09023 5.42493
446 O -0.930399 10.501 7.7863 2.71197
468 O -0.927166 15.4391 2.63503 5.25494
84 Si 1.91274 16.5245 2.49249 4.10043
418 O -0.903345 13.3707 2.52428 10.1403
492 O -0.973339 13.9728 4.63603 1.34233
549 O -0.816508 17.0059 9.83175 4.93217
232 O -0.854304 15.3969 4.23982 10.2627
257 O -1.01454 19.8695 2.18873 2.83311
179 O -0.882584 20.624 4.28978 1.61666
198 O -0.949168 23.2328 7.98629 2.69582
126 O -0.88671 22.1875 3.95619 4.06152
342 O -0.88778 17.9555 2.35068 4.80809
330 O -0.931393 24.2043 9.90629 3.91428
48 Si 1.63308 20.7192 5.88482 1.35038
302 O -0.873369 21.6033 9.03803 8.88658
268 O -0.891071 20.2124 5.28956 5.22778
417 Si 1.74452 19.2043 9.68001 2.41677
374 O -0.887906 22.3222 8.82492 4.98963
4 O -0.90759 21.9614 4.28364 6.7501
36 O -0.927938 21.6491 4.56357 9.34102
237 Si 1.66613 17.2732 4.87425 2.41438
137 Si 1.91142 22.2231 5.27911 7.98423
120 Si 1.77243 23.5425 3.16963 3.5888
509 O -0.951128 18.2087 7.3243 4.94344
214 O -0.898091 19.4182 7.6262 9.02086
331 O -0.520054 20.6524 9.35289 1.83855
260 O -0.975569 21.579 6.7152 7.76793
61 O -0.988759 23.816 5.28654 8.2135
530 O -0.904757 17.9394 8.77887 1.82496
158 O -0.899871 18.1735 5.16181 3.74429
436 O -0.90366 20.2835 8.92151 6.70045
574 O -0.817008 19.877 9.25847 3.88765
159 O -1.02513 24.0149 8.33629 9.49485
354 Si 1.71289 20.7913 9.56587 5.25542
425 Si 1.80827 21.1789 4.00256 5.32196
110 Si 1.83102 20.6222 8.03889 7.94609
542 Si 1.84998 22.6463 9.0063 10.0858
16 O -0.906628 20.4078 2.60072 5.28236
242 O -0.772585 20.0655 6.62157 2.81064
332 O -0.863084 23.6423 2.82624 1.91884
146 Si 1.65779 19.1968 6.23856 4.31499
531 O -0.900258 17.4349 3.44715 8.62616
507 Si 1.9411 23.6051 8.43471 4.10855
391 O -0.864509 1.69248 13.6225 8.57995
274 O -0.917408 0.234746 15.7008 7.39349
156 Si 1.91761 1.63433 12.1198 2.70407
575 O -0.899153 -0.842518 14.7691 3.85961
299 Si 1.89772 0.240658 17.2527 6.99796
554 O -1.03757 1.84604 17.4225 6.93191
3 Si 1.8583 -1.82566 12.9139 7.40192
250 O -0.867204 -0.971398 13.7867 8.49773
29 Si 1.82023 -2.21633 14.1264 4.47476
53 O -0.886129 1.53736 15.9613 3.55835
307 Si 1.87079 0.331628 15.0385 2.79543
140 O -0.955456 -2.01435 13.6514 5.92048
144 O -0.96266 0.857111 11.1807 3.75864
386 O -0.861464 -0.959534 11.5411 7.26957
190 Si 1.82707 0.46468 14.6157 8.5719
350 O -0.943611 1.07603 13.6512 2.65868
208 Si 1.98945 2.57029 17.2564 3.71009
211 O -0.840173 2.76057 12.9599 6.3242
94 O -0.967469 -0.521232 15.7557 1.608
70 O -0.949467 2.95857 12.147 3.57087
442 Si 1.80707 3.20974 13.3065 7.87847
189 O -0.905175 -0.220667 17.598 5.46479
221 O -0.8185 -2.95002 12.7302 3.79472
224 O -0.775412 -2.66732 10.9051 1.90275
86 O -0.875377 -3.30979 15.3413 4.26045
116 O -0.984873 -3.17491 16.5933 9.29575
196 O -0.980599 -3.3009 12.5187 7.73092
212 O -0.986798 -0.214035 18.3025 8.12158
481 O -0.896822 0.75252 15.5654 9.89376
76 O -0.917004 -3.56864 16.6263 6.62963
344 Si 1.68729 24.2267 11.3318 3.14626