LAMMPS data file via write_data, version 29 Aug 2024, timestep = 10000, units = real

3071 atoms
8 atom types
2080 bonds
7 bond types
1173 angles
8 angle types
210 dihedrals
4 dihedral types

-32.65379346327718 32.65379346327718 xlo xhi
-11.140512834442267 11.140512834442267 ylo yhi
-11.140512834442267 11.140512834442267 zlo zhi

Atom Type Labels

1 OE
2 C
3 HC
4 H
5 CPos
6 OAlc
7 OW
8 HW

Bond Type Labels

1 g4
2 g18
3 g26
4 g27
5 g56
6 g71
7 OW-HW

Angle Type Labels

1 g12
2 g13
3 g14
4 g15
5 g51
6 g56
7 g102
8 HW-OW-HW

Dihedral Type Labels

1 g23
2 g34
3 g46
4 glj14

Masses

1 15.9994
2 12.011
3 1.008
4 1.008
5 12.011
6 15.9994
7 15.9994
8 1.008

Pair Coeffs # lj/cut/coul/long/omp

1 0.2526 2.8492
2 0.0663 3.5812
3 0.0283 2.3734
4 0 0
5 0.245 2.8114
6 0.1195 3.1
7 0.155 3.165
8 0 0

Bond Coeffs # harmonic/omp

1 1109.29 1.12
2 399.792 1.43
3 299.844 1.52
4 400.034 1.53
5 310.707 1.41
6 179.254 0.971
7 529.581 1.012

Angle Coeffs # harmonic/omp

1 47.694 109.5
2 55.1271 109.5
3 47.635 109.6
4 55.1139 111
5 54.9931 110.3
6 180.46 109
7 30.1731 110
8 37.95 113.24

Dihedral Coeffs # harmonic/omp

1 0.3011 1 3
2 1.4149 1 3
3 0.239 -1 3
4 0 1 1

Atoms # full

1793 598 8 0.41 -29.39973422122323 -9.704728436008553 -7.590074487744017 0 1 0
1792 598 7 -0.82 -29.970403214216276 -8.93920800693147 -7.152919579424816 0 1 0
2610 870 8 0.41 -26.08606663539976 -8.979207194552158 -8.100241665915066 0 1 0
2608 870 7 -0.82 -26.668904154106198 -9.610537741178828 -7.498937299654177 0 1 0
1909 637 7 -0.82 -30.4243664973069 -4.572536375506771 -6.9367383933807725 1 1 0
2347 783 7 -0.82 -30.259655400569425 -8.677608335547706 -4.445349809817246 0 1 0
2349 783 8 0.41 -30.103711031985213 -9.607268722806023 -3.9778829414531556 0 1 0
2348 783 8 0.41 -30.368428513146362 -8.818373594337062 -5.472524648760646 0 1 0
2780 927 8 0.41 -26.75066882502719 -8.97331392588022 -10.016636533775142 1 1 1
1911 637 8 0.41 -29.604927463457823 -5.189345755463593 -7.088843636503369 1 1 0
304 102 7 -0.82 -29.773216137130827 -7.755690967471096 10.795274980831318 1 0 -1
1910 637 8 0.41 -30.83287475448299 -4.844664514049645 -6.04379536190885 1 1 0
1916 639 8 0.41 -32.220483470107276 -5.378787721045923 -10.131643612663199 1 0 1
1794 598 8 0.41 -30.775270021888677 -8.678159556057368 -7.772921548880189 0 1 0
2234 745 8 0.41 -30.67294354355345 -7.281033396343027 -4.50610189018141 0 1 0
2609 870 8 0.41 -26.056051246681392 -9.775088113433746 -6.679529086690206 0 1 0
305 102 8 0.41 -30.657617250234253 -7.716917551102323 10.298021229088102 1 0 -1
1400 467 8 0.41 -32.12246181031241 -9.144507374441487 -9.384358635906123 0 1 0
2233 745 7 -0.82 -31.080626596560275 -6.358931689873022 -4.764799328004167 0 1 0
494 165 8 0.41 -27.99882981486982 -6.513741026140345 -5.885479622582349 1 0 0
493 165 7 -0.82 -28.582181365291568 -6.476651774358663 -6.734339814651575 1 0 0
1074 358 8 0.41 -25.188214417926886 -7.096748937578001 -9.765401370506746 0 0 0
1072 358 7 -0.82 -24.71062531651335 -7.813607054435878 -9.161849804244211 0 0 0
495 165 8 0.41 -29.189873143036213 -7.292527445905274 -6.824604825615077 1 0 0
2696 899 8 0.41 -25.879875064859323 -7.777391581184914 -4.4308997782385235 0 0 0
2697 899 8 0.41 -26.20050722203318 -6.19174655437179 -4.238393356355371 0 0 0
1915 639 7 -0.82 32.12690986757234 -5.70073916011669 -10.251945260754063 0 0 1
1501 501 7 -0.82 -31.67569190971818 -7.672492066573979 -8.630670499028094 0 1 1
1502 501 8 0.41 -30.971057906708975 -6.965691796104923 -8.917374834685816 0 1 1
306 102 8 0.41 -29.004847839324842 -7.541483016902084 10.134579583680326 1 0 -1
2417 806 8 0.41 -30.32956036690858 -5.02531494844547 -9.159016703527925 0 0 1
1917 639 8 0.41 31.598938861983996 -4.915733705194011 -10.668767094252734 0 0 1
1399 467 7 -0.82 -32.178738798324055 -10.125014746995898 -9.721831879013378 0 1 0
1401 467 8 0.41 32.22484627007999 -10.551301576665802 -9.518386046568548 -1 1 0
2721 907 8 0.41 -31.1113412727517 11.027181706901795 9.719966426285895 0 0 0
2540 847 8 0.41 -26.395097321359145 -6.159721799871281 10.557172644892125 1 0 -1
1597 533 7 -0.82 -26.666040763030153 -9.449476706966655 -4.2021310560046885 0 0 0
1598 533 8 0.41 -26.404714091026584 -10.373177522203289 -4.576654696952331 0 0 0
1073 358 8 0.41 -24.27154034989017 -7.310708030803943 -8.37176138519348 0 0 0
2695 899 7 -0.82 -25.41155527491491 -6.86325116047678 -4.398487465808197 0 0 0
1919 640 8 0.41 -23.547239217205515 -5.5244856394795985 -7.064178784195343 0 0 0
1918 640 7 -0.82 -23.84017937281461 -6.468682420790327 -6.8338167608327325 0 0 0
1581 527 8 0.41 -21.335242041498088 -8.883498153209098 -8.682666009036938 0 0 0
1579 527 7 -0.82 -21.492970532921227 -8.345517215914871 -7.818744026549621 0 0 0
1580 527 8 0.41 -22.373146255573566 -7.840373140229559 -7.790087018007179 0 0 0
1920 640 8 0.41 -24.528687000871585 -6.500078576788796 -6.079648173298279 0 0 0
2411 804 8 0.41 -26.35742010633046 -3.6593886694556748 -6.594030850373814 0 0 1
2703 901 8 0.41 -24.021606124584586 -2.7932448887489123 -5.3222834426932835 0 0 0
815 272 8 0.41 -23.339020970359506 -10.002344575050493 -6.194209212206076 0 1 0
814 272 7 -0.82 -24.219207550529553 -9.615157183541141 -5.876009718905349 0 1 0
2412 804 8 0.41 -27.499642283720906 -4.719577710700239 -7.16907275604874 0 0 1
2410 804 7 -0.82 -27.141466623784183 -3.76660716223015 -7.2350913865927575 0 0 1
2491 831 7 -0.82 -21.004015356981014 -8.454847225610287 9.92456749559837 0 1 -1
2492 831 8 0.41 -21.919330791337728 -7.984786291172676 9.836479167963185 0 1 -1
1217 406 8 0.41 -22.647268592006117 -5.70708162193066 -10.858527832209376 0 1 1
1216 406 7 -0.82 -21.867358135548713 -5.14204305227164 -10.481322117241364 0 1 1
2753 918 8 0.41 -20.542052498683724 -7.841435550904075 -6.461268318588706 0 0 0
129 43 8 0.41 -20.34279591189967 -6.530571456823946 -4.694241922870878 0 0 0
2663 888 8 0.41 -19.93616702263693 -10.672263817084641 -10.434205056017145 0 0 0
2662 888 7 -0.82 -20.160630845215433 -10.067546855152319 -9.634747978778424 0 0 0
1441 481 7 -0.82 -23.711881677554285 -10.277941063716183 10.945145150236067 0 1 0
1713 571 8 0.41 -25.77740806415876 -2.552114765948378 -2.1618789529923657 0 0 0
457 153 7 -0.82 -23.189158817437 -5.716362517212489 -3.1992888685584733 0 1 0
458 153 8 0.41 -23.89973841809053 -6.272946789118471 -3.681869327787023 0 1 0
1866 622 8 0.41 -22.43976145644391 11.126273342816576 -3.1756557624226094 0 0 0
816 272 8 0.41 -24.156951166047186 -8.862889760592218 -5.2253557043333725 0 1 0
1443 481 8 0.41 -22.697831492701773 -10.113489448184714 11.019985055133356 0 1 0
2208 736 8 0.41 -20.13395249872166 10.063233304030684 10.174250056475303 0 -1 -1
1797 599 8 0.41 -13.050776751928083 -10.545242016716566 -9.290824486750319 0 1 1
1796 599 8 0.41 -12.485258449245404 10.376326184849178 -8.3636275215132 0 0 1
2754 918 8 0.41 -19.461955536896003 -6.407318131256543 -6.233266930474334 0 0 0
2752 918 7 -0.82 -19.721899495308264 -7.395501229438038 -6.0253391814889925 0 0 0
1795 599 7 -0.82 -12.281736711599013 -10.94917520762731 -8.724886866020881 0 1 1
934 312 7 -0.82 -15.99630455677697 -10.357746912969162 -7.365050926524268 0 0 1
936 312 8 0.41 -16.07766328124683 10.916096367953697 -7.219282945647233 0 -1 1
119 40 8 0.41 -18.509818100520345 -10.372211400803314 -6.233245966206352 0 1 0
692 231 8 0.41 -15.389593112378218 -8.591338437493286 -6.551140234235663 0 0 0
693 231 8 0.41 -15.515591456899365 -6.876059354143305 -6.336346500704514 0 0 0
3066 1022 8 0.41 -15.22868793180293 -10.1712823411039 -8.99214502056454 0 1 0
935 312 8 0.41 -16.909420581185305 -9.918524125824302 -7.557141848178135 0 0 1
3064 1022 7 -0.82 -14.742349233363349 -10.335376656418244 -9.8909190438335 0 1 0
3065 1022 8 0.41 -14.806073305804041 -9.442926294092203 -10.416964475797593 0 1 0
185 62 8 0.41 -17.433097786007103 -5.291341731578235 -6.769306078547701 0 1 0
1658 553 8 0.41 -17.821615496800273 -6.06559765121498 -3.794140297622252 0 0 0
72 24 8 0.41 -18.358280333168757 -7.140690148742085 -10.02631260060699 0 0 1
691 231 7 -0.82 -14.853892158988415 -7.6830537515623485 -6.494670473569433 0 0 0
2809 937 7 -0.82 -13.252262956449453 8.985331431891867 -7.780857428729425 0 0 1
1659 553 8 0.41 -17.749863357607403 -6.417465739254022 -2.210643110543465 0 0 0
1657 553 7 -0.82 -17.174503347238577 -6.341177317482586 -3.056466791669939 0 0 0
2770 924 7 -0.82 -18.317397874602964 -9.185560028923952 -7.723504699227161 0 1 0
2490 830 8 0.41 -14.626880635782449 -10.685771185020371 10.049656821885522 0 1 -1
2810 937 8 0.41 -13.364546109747405 8.816913267262562 -6.7816581447569195 0 0 1
184 62 7 -0.82 -16.435538906645125 -5.587170397662279 -6.719187869163279 0 1 0
186 62 8 0.41 -15.991408419330451 -4.788431336090184 -7.199950597285108 0 1 0
2771 924 8 0.41 -18.68520653372299 -8.43384023111831 -7.104729707343388 0 1 0
2772 924 8 0.41 -18.893659588329882 -9.281366326364868 -8.584311313068342 0 1 0
1823 608 8 0.41 -14.133496137240744 -1.9700231113072437 -3.9688377790834046 0 0 0
70 24 7 -0.82 -18.317366701139854 -7.117186639650422 -11.059554528463885 0 0 1
574 192 7 -0.82 -15.55057081193964 -4.259832436308726 10.189974134912928 0 0 0
576 192 8 0.41 -15.401728972945598 -3.4513655781217434 9.587304212219161 0 0 0
575 192 8 0.41 -15.97365434428961 -5.057629733931172 9.688268263075395 0 0 0
1721 574 8 0.41 -13.180426959163558 -9.893212404884412 -6.874902691736301 0 0 1
1720 574 7 -0.82 -12.713379475275698 -9.595035298868865 -6.000485177708849 0 0 1
80 27 8 0.41 -10.76868511564086 -6.348993913862519 -10.819002481923055 0 0 0
1384 462 7 -0.82 -7.363670083561367 8.451077131415323 -8.000707692379322 0 -1 1
1385 462 8 0.41 -6.98029367628137 7.524321494940446 -7.741105110617231 0 -1 1
2070 690 8 0.41 -8.954578461700486 -9.258199122181717 -8.274767452988321 0 0 1
500 167 8 0.41 -13.815385167976768 -6.792142703028985 -7.770010086499672 0 0 1
499 167 7 -0.82 -13.030145150981252 -6.450618017361514 -8.324732416869821 0 0 1
1706 569 8 0.41 -13.699843283731074 -7.067901758039597 -4.917002429850015 0 1 0
1707 569 8 0.41 -12.283216056630721 -6.81289465659188 -4.11391078808739 0 1 0
1705 569 7 -0.82 -13.130800893552355 -6.360623149745463 -4.48670969386531 0 1 0
501 167 8 0.41 -12.26061881425925 -6.737647080228649 -7.691334761598222 0 0 1
1035 345 8 0.41 -10.166937863605757 -7.704923601947435 -2.9243956149184918 0 0 0
1033 345 7 -0.82 -11.078944332246177 -7.718474135464108 -3.35462549965957 0 0 0
1386 462 8 0.41 -7.573459922880126 8.301479618151669 -9.006002673030968 0 -1 1
97 33 7 -0.82 -6.002539751928886 -6.581796035545377 -6.068568363219672 0 0 0
98 33 8 0.41 -5.55281145390234 -6.445544944874161 -6.978909696196137 0 0 0
79 27 7 -0.82 -11.39670269222357 -5.5957749285086 -10.543679402453972 0 0 0
1722 574 8 0.41 -12.167323465262772 -8.737137365712153 -6.1911754791074864 0 0 1
1642 548 7 -0.82 -10.185081114426687 -9.863731908639451 -7.520935551165118 0 0 0
2192 731 8 0.41 -6.551987439754374 -3.2440021292795915 -9.098504431068218 0 0 0
2191 731 7 -0.82 -7.379539151565098 -3.8696837830452466 -9.201775681881985 0 0 0
2193 731 8 0.41 -6.867760160912127 -4.754161349893713 -9.158766834491171 0 0 0
1767 589 8 0.41 -9.616176838298326 -3.2576154026734976 -6.857388681394796 0 -1 0
1765 589 7 -0.82 -10.122126914953625 -4.119670587039046 -7.133716831292323 0 -1 0
1673 558 8 0.41 -10.12757652650427 -4.643627154915846 -3.8366869411727187 0 0 -1
2068 690 7 -0.82 -8.222796930865911 -8.934593837571017 -8.910221518416241 0 0 1
2069 690 8 0.41 -8.043487546453676 -9.752210543046091 -9.536513603082708 0 0 1
3055 1019 7 -0.82 -11.023330196598057 -7.429361652755082 -6.982084352026357 0 1 0
3057 1019 8 0.41 -10.507531176080732 -6.919400776935445 -6.268757734096884 0 1 0
3056 1019 8 0.41 -10.384350105388553 -8.002417047952658 -7.57711729281168 0 1 0
81 27 8 0.41 -12.099953321279727 -5.8461425771350966 -9.86785603916923 0 0 0
1969 657 7 -0.82 -6.901314932835142 -3.706296167918839 10.582429547421297 0 0 0
1766 589 8 0.41 -9.515816402156265 -4.508805857085285 -7.868654674189909 0 -1 0
1034 345 8 0.41 -11.35747268556512 -8.631640124778636 -3.745742259113845 0 0 0
2031 677 8 0.41 -6.669042554332087 -6.177466312523723 -4.661388431036066 0 1 0
3047 1016 8 0.41 -11.617562258999232 -10.8524602142987 -5.280018496133859 0 1 0
99 33 8 0.41 -6.803938426746274 -7.218539422420809 -6.26656865256034 0 0 0
2108 703 8 0.41 -5.603471139575884 -10.407273151278401 -7.59912627871598 0 -1 0
2107 703 7 -0.82 -5.667829482173087 -9.527029150122813 -8.114004719506204 0 -1 0
2109 703 8 0.41 -6.565756322038354 -9.252429643363387 -8.531233240320232 0 -1 0
241 81 7 -0.82 -5.851372783360009 10.305243199145407 -6.814876486048322 0 -1 0
243 81 8 0.41 -6.292954397171453 10.499725423108094 -5.894974672614689 0 -1 0
1860 620 8 0.41 -3.127607169363163 -10.731281932128928 -6.14822440403179 0 0 0
94 32 7 -0.82 -4.86862287823832 -2.1307742702782004 -6.417913852424156 0 0 0
95 32 8 0.41 -4.407652518120305 -1.1998584787861617 -6.2497605311205815 0 0 0
96 32 8 0.41 -5.151914090076108 -2.2757235800247013 -7.402479763812751 0 0 0
23 8 8 0.41 -3.8502863452016705 -5.97643420833927 -5.113000432705322 0 0 0
24 8 8 0.41 -3.095720733800068 -6.933305181751926 -4.004417217800968 0 0 0
22 8 7 -0.82 -3.04940850828806 -6.631290611965972 -4.967648484807504 0 0 0
2596 866 7 -0.82 -4.349698502872382 -8.202356521955183 -9.907900589470863 0 0 1
2597 866 8 0.41 -3.3915054678463292 -7.908424235135009 -9.811673480407878 0 0 1
2243 748 8 0.41 -2.8866136460650687 -3.547018854003567 -7.590830551083803 0 0 0
1781 594 8 0.41 -4.600542030765364 -5.243401070479086 -9.011294271349117 0 0 0
1780 594 7 -0.82 -5.333595094227135 -5.9378183665392745 -8.961406783936829 0 0 0
1782 594 8 0.41 -5.2319170396501065 -6.4931432731593635 -9.800503460295296 0 0 0
2598 866 8 0.41 -4.594359527875444 -8.607829495845515 -9.020050978637828 0 0 1
2480 827 8 0.41 -0.4606938928580817 -3.381968930638317 10.414258322276448 0 0 0
2479 827 7 -0.82 -1.4471227479918056 -3.7115018869037604 10.314847408011895 0 0 0
1990 664 7 -0.82 -0.009570755722968727 -6.4123526253712955 -8.88888709462551 0 0 0
1992 664 8 0.41 -0.30124083429383575 -6.996076293410631 -8.101913591581317 0 0 0
604 202 7 -0.82 -0.6169669919443521 -8.669800081428804 -7.044105901714463 0 0 0
605 202 8 0.41 -1.609871579511612 -8.940249096320374 -6.966866721744045 0 0 0
2242 748 7 -0.82 -3.007492934541954 -3.904909851677952 -8.53396184535961 0 0 0
341 114 8 0.41 -0.2170350723511234 -2.7745644702991097 -8.532844079593659 0 0 0
1833 611 8 0.41 -0.464281801048152 -10.741205165539956 -6.750789605891778 0 1 1
1670 557 8 0.41 -3.3192658752604594 -8.187160100200042 -6.043401417681031 0 0 0
1671 557 8 0.41 -4.312482000706051 -9.294867920431034 -7.030359423084588 0 0 0
1669 557 7 -0.82 -3.3739492467754957 -8.914580386724136 -6.800231138978999 0 0 0
1136 379 8 0.41 -1.3592026983188141 -5.669315482433258 -5.384539010991609 0 -1 0
1135 379 7 -0.82 -0.39930502199958084 -5.375210341077918 -5.586958412244207 0 -1 0
3012 1004 8 0.41 0.010246381728570952 -7.350130303918816 -10.349034669650491 0 0 1
3187 1051 1 -0.284 2.942827810456407 -4.850791857846127 -4.467670809599182 0 0 0
3183 1051 3 0.082 2.7797457756415582 -5.984542855630657 -6.541524931862294 0 0 0
3181 1051 2 -0.023 3.3075125383609603 -6.649639231724429 -5.810124278322982 0 0 0
3179 1051 3 0.082 4.886808662129134 -8.154204487404485 -8.315387832035782 0 0 0
3178 1051 3 0.082 3.1806781096184196 -7.729425199753054 -8.081411101173519 0 0 0
3177 1051 2 -0.023 4.068354782668834 -8.157563343477962 -7.547030118889519 0 0 0
3182 1051 3 0.082 2.559479445297704 -7.426043907667577 -5.504511005984018 0 0 0
3180 1051 1 -0.283 4.417576218971888 -7.329282213393885 -6.42459804307037 0 0 0
1991 664 8 0.41 -0.05661404800612502 -5.4668789975167975 -8.477725234782701 0 0 0
3184 1051 2 -0.023 3.799763429242489 -5.969465771489644 -4.573379137720121 0 0 0
3186 1051 3 0.082 3.6440930954054878 -6.62633165422007 -3.6804014862059313 0 0 0
3185 1051 3 0.082 4.86408764258276 -5.702949275093739 -4.805151887170487 0 0 0
1137 379 8 0.41 0.15837936166671795 -6.216948190241497 -5.318575543891277 0 -1 0
3174 1051 2 -0.023 3.8412543502339744 -9.634680852864692 -7.173507125119141 0 0 0
3173 1051 1 -0.283 4.617829064148019 -10.589345762145616 -7.9082951842686535 0 0 0
3176 1051 3 0.082 2.7476084244842482 -9.779837809705622 -7.357076859483703 0 0 0
3171 1051 3 0.082 3.230286899322479 -10.06941526507183 -9.53708294222674 0 0 0
2938 980 7 -0.82 0.6292901543437566 -4.034683213860728 -7.7829980246380535 0 0 1
2940 980 8 0.41 0.6486773417327143 -4.474962090919281 -6.832467580282108 0 0 1
2406 802 8 0.41 8.793956764466003 -4.129363684330057 -8.945442032481381 0 0 0
1376 459 8 0.41 2.928382833762086 -4.40037124895507 -8.98581060914418 0 0 1
1375 459 7 -0.82 2.3769982108618635 -4.702707859097872 -9.795514395726842 0 0 1
3170 1051 2 -0.023 3.9264604746187715 -10.866274183818268 -9.16772441348666 0 0 0
3188 1051 2 -0.023 2.8554935729125432 -4.080528561386466 -3.209788887625976 0 0 0
606 202 8 0.41 -0.27673664435099 -8.356555461763497 -6.124845202832874 0 0 0
2939 980 8 0.41 1.2397846102150467 -4.4589493634123745 -8.501370286931854 0 0 1
1377 459 8 0.41 2.479917508669793 -5.704719545105877 -9.661919055251873 0 0 1
3175 1051 3 0.082 4.0695591489151255 -9.73159289001458 -6.0816946436402795 0 0 0
1029 343 8 0.41 7.585159334221892 -10.431726002416758 -7.425019912332997 0 0 0
1359 453 8 0.41 5.720967541670191 -8.921281907231732 -6.195242794596018 0 0 1
1028 343 8 0.41 6.985455065182023 10.695726663877453 -8.537719827814158 0 -1 0
1027 343 7 -0.82 7.766487464136134 -11.06811935395554 -8.2210288236493 0 0 0
2905 969 7 -0.82 7.663035088923394 -3.956082801689985 -2.825873010296899 0 0 1
267 89 8 0.41 11.519463168762556 -10.964097629069219 -1.6395604820483314 0 1 0
3027 1009 8 0.41 9.420943417065892 -4.042264804052995 -5.006917230094945 0 0 0
3026 1009 8 0.41 9.174159166317814 -4.980884556876053 -6.349207622300307 0 0 0
3025 1009 7 -0.82 9.869073042866262 -4.396524598380558 -5.849644262031731 0 0 0
1625 542 8 0.41 12.335202575386198 -8.035069247985414 -9.173372176890801 0 0 0
1626 542 8 0.41 12.776252316048115 -7.1933945198748654 -7.894119484802337 0 0 0
1624 542 7 -0.82 12.316882739589701 -8.043576754587365 -8.145685642701453 0 0 0
2370 790 8 0.41 8.927474147255538 -10.174268789401928 -9.214991984997484 0 0 0
2368 790 7 -0.82 9.66074939394845 -9.568108183174985 -9.59471766166737 0 0 0
1357 453 7 -0.82 6.5460376145670836 -9.112838168405952 -5.620450940325949 0 0 1
2856 952 8 0.41 14.801238168877063 -10.706091007173491 -7.961844706176408 0 0 0
2854 952 7 -0.82 14.60012573988999 -9.962239721757559 -8.642535381007994 0 0 0
1230 410 8 0.41 11.740554428280063 -4.345095537588486 -6.939503400402476 0 0 1
1358 453 8 0.41 6.1786883860347 -9.203140390160256 -4.677970117854291 0 0 1
2169 723 8 0.41 11.305470936078208 -5.175541032813454 -2.372689057111863 0 0 0
2167 723 7 -0.82 10.33744966091222 -5.39517665197843 -2.15220564305411 0 0 0
2168 723 8 0.41 9.658871719868529 -4.640058179960479 -2.1363820904768893 0 0 0
2855 952 8 0.41 13.935511287590678 -9.370181345231316 -8.12780678689396 0 0 0
2404 802 7 -0.82 8.657631122854646 -5.131303186595136 -8.771469278659914 0 0 0
2405 802 8 0.41 9.49635715477369 -5.651430940806973 -9.06577431476422 0 0 0
2174 725 8 0.41 10.056026045167101 -8.585860907687971 -4.994870862088019 0 1 0
1228 410 7 -0.82 12.716525463527915 -4.19811383915153 -7.164398362502345 0 0 1
1229 410 8 0.41 12.718870332765484 -3.375887566618413 -7.7713751738426025 0 0 1
2761 921 7 -0.82 8.589311910758852 10.70458505749666 -3.8425223330011704 0 0 -1
2369 790 8 0.41 10.267169944258868 -9.18073604501591 -8.896805074319404 0 0 0
3129 1043 8 0.41 6.097755300737006 -5.186907234352368 10.67229498273946 0 0 -1
3128 1043 8 0.41 5.972047684783497 -6.846484448777724 10.619165933609791 0 0 -1
3127 1043 7 -0.82 6.366657664464817 -6.038186130263154 10.114257294230017 0 0 -1
2606 869 8 0.41 12.744604526833342 -3.368134067156867 10.637988800276146 0 0 0
914 305 8 0.41 12.698680921312537 -8.501706238016176 10.7226213649154 0 0 -1
2175 725 8 0.41 11.246710992517656 -8.848917375683794 -6.23604120225398 0 1 0
642 214 8 0.41 15.066311142505924 -9.833600113029835 -4.050264094958226 0 1 0
640 214 7 -0.82 14.183771782923834 -9.342700307774416 -4.256682598006635 0 1 0
641 214 8 0.41 13.456714501632732 -9.941915450421462 -4.6129439690169765 0 1 0
2329 777 7 -0.82 17.28311018822668 -9.683092954178008 -6.6609487257717905 0 0 1
2330 777 8 0.41 17.591809793552045 -10.658383119757064 -6.545498392091379 0 0 1
2331 777 8 0.41 17.679659774161642 -9.32812981213455 -7.535973712763308 0 0 1
618 206 8 0.41 15.925199962176372 -4.075547500484076 -8.041902677542682 0 0 1
624 208 8 0.41 16.528743253987976 -7.240108794979664 -9.347136418542947 0 0 0
623 208 8 0.41 15.701174684246936 -8.757594770750487 -9.250708579362447 0 0 0
622 208 7 -0.82 16.26845776431383 -8.10469448375193 -9.804970802714207 0 0 0
2694 898 8 0.41 16.296115540099578 -8.11202987755686 -6.075802854766124 0 1 0
2173 725 7 -0.82 10.8316067413759 -9.122198824031843 -5.349700713937147 0 1 0
956 319 8 0.41 14.807426687271786 -6.617631658686343 -7.2706448018411844 0 0 1
2692 898 7 -0.82 15.485346965370994 -7.458408887362099 -5.928822383554158 0 1 0
2693 898 8 0.41 14.783522774027517 -7.930430052032485 -5.351759952542088 0 1 0
617 206 8 0.41 17.06378026639245 -3.2190261740370447 -9.015889503301228 0 0 1
616 206 7 -0.82 16.872769538440025 -3.7397723852981244 -8.167185738198427 0 0 1
286 96 7 -0.82 14.971027115829564 -5.3324684093181 -10.55478860106041 0 0 1
1530 510 8 0.41 14.05921378890212 -7.457473426877346 -3.047882506595787 0 0 0
288 96 8 0.41 15.02796469800279 -5.580581404004644 -9.562411251772135 0 0 1
1609 537 7 -0.82 18.507824686084753 -10.418827897081952 -9.406077650171202 0 1 0
1325 442 8 0.41 18.56460139376273 -7.129122012086789 -6.641874761912096 0 0 0
1326 442 8 0.41 18.323481184756318 -8.503913985529197 -5.837233103667322 0 0 0
1965 655 8 0.41 18.010488821490767 -5.213971934641809 -7.785171684596627 0 0 0
1963 655 7 -0.82 18.313828971497472 -6.182353456931184 -7.866424302699333 0 0 0
593 198 8 0.41 19.289938725070037 -7.113164084525642 -4.108719237868918 0 1 0
1964 655 8 0.41 19.03312513510646 -6.19320776505636 -8.620657936297565 0 0 0
16 6 7 -0.82 12.529037824079857 -3.549805108084639 -2.5393302262989845 0 -1 0
1610 537 8 0.41 19.147997455762983 -9.651525919170755 -9.568070174054306 0 1 0
1611 537 8 0.41 19.004697014389833 11.009313256335401 -9.09549616738754 0 0 0
3013 1005 7 -0.82 18.716596012010072 10.696965707643317 -3.970110242841452 0 -1 0
1952 651 8 0.41 15.221115299231165 -5.4450003028009 -4.8683187969897475 0 1 0
1324 442 7 -0.82 18.93055205544318 -7.662964341051133 -5.81390988730461 0 0 0
2301 767 8 0.41 24.56631833161579 -4.272650809582268 -8.01373790394337 0 1 0
1457 486 8 0.41 21.807962051765244 -9.441376056903087 -9.813812727089902 0 0 0
893 298 8 0.41 23.66533048468483 -7.173656875921505 -4.310526474772247 0 0 0
2977 993 7 -0.82 23.898654621146726 -5.576604527439392 -7.523674130029232 0 1 0
2978 993 8 0.41 24.75193740846351 -6.00978667390145 -7.121562466678188 0 1 0
688 230 7 -0.82 24.947450435365703 -10.674896978478 -9.79133432959703 0 1 0
929 310 8 0.41 20.4009913846834 -7.022966522480247 -6.40118548358933 0 1 1
928 310 7 -0.82 21.382468675503752 -6.684009588700649 -6.432684234908847 0 1 1
2629 877 7 -0.82 27.093625224327077 -8.596603783303477 -3.5952060095859304 0 1 0
2979 993 8 0.41 23.0807535349033 -6.174774132227988 -7.308745217156795 0 1 0
930 310 8 0.41 21.864682354650213 -7.174795125693474 -5.69346729579537 0 1 1
2081 694 8 0.41 25.15789073876234 -10.429086553500737 -8.055705909520563 0 1 1
2631 877 8 0.41 26.234774727325586 -8.582306639352714 -4.181825075197395 0 1 0
894 298 8 0.41 23.899417255588034 -5.8033428079935625 -3.302091359592402 0 0 0
892 298 7 -0.82 23.273237820217155 -6.520169687717785 -3.6590006376449997 0 0 0
2782 928 7 -0.82 21.011084540692984 -4.156358979556389 -7.807602124311827 0 0 0
592 198 7 -0.82 19.656539099494573 -6.974831453756288 -3.1377719008663174 0 1 0
594 198 8 0.41 19.751384782349355 -5.939771780001476 -3.018074410953968 0 1 0
2502 834 8 0.41 26.816204684782 -6.2429198613704395 -5.393469312233761 0 0 1
2500 834 7 -0.82 26.32318249441412 -5.989932825729265 -6.258165544572013 0 0 1
2576 859 8 0.41 24.612353542500166 -7.438388682091374 -10.126653605038454 0 0 0
870 290 8 0.41 27.237790969983863 -7.513620078808387 -8.869529097016448 0 1 1
868 290 7 -0.82 27.957614665298436 -7.3085413749546095 -8.176673589973552 0 1 1
615 205 8 0.41 25.124853459221143 -9.088144426188837 -5.682755018073045 0 1 0
614 205 8 0.41 23.928813770833145 -9.316837714879833 -4.426349887851327 0 1 0
613 205 7 -0.82 24.791720645171374 -8.847636349073603 -4.737996907724455 0 1 0
2080 694 7 -0.82 24.88540958329591 -10.331049065600435 -7.0682824349871165 0 1 1
2082 694 8 0.41 24.66359183308385 10.967920251969693 -6.953777147672764 0 0 1
2784 928 8 0.41 21.518012102900435 -4.883078419927773 -7.307270108910352 0 0 0
954 318 8 0.41 26.59783101123174 -4.414229322507055 -6.212508318501919 0 1 0
3103 1035 7 -0.82 20.463409597318098 -6.424108098932588 -9.725242170612463 0 0 1
1458 486 8 0.41 21.058399415207212 -9.06459596219624 11.011382999506994 0 0 -1
1456 486 7 -0.82 21.952641643280387 -9.177933779472658 -10.784574038937626 0 0 0
3105 1035 8 0.41 21.341317127600384 -6.952689573746568 -9.794487324325964 0 0 1
2313 771 8 0.41 -32.65076890952185 -6.9310970292790275 -5.78407275663871 0 1 0
2630 877 8 0.41 26.952435823483647 -7.738718897287874 -3.008289484774876 0 1 0
1503 501 8 0.41 -32.38041503527401 -7.261055559545029 -8.007033101220058 0 1 1
2238 746 8 0.41 29.248841273416254 -6.17963718083783 -7.071646140705139 0 0 0
941 314 8 0.41 30.986126221872397 -7.050347209340537 -10.151783753833648 -1 1 0
940 314 7 -0.82 30.11006340745312 -7.554866472030163 -9.924789774023818 -1 1 0
942 314 8 0.41 30.40713464582491 -8.436677518881208 -10.293072808529478 -1 1 0
2501 834 8 0.41 26.740889899167044 -6.562652470683594 -7.001947717144944 0 0 1
2575 859 7 -0.82 25.430608221826006 -7.8387299320286505 -9.65007043298256 0 0 0
3148 1050 7 -0.82 -31.25659280042329 -10.909452600176326 7.7401824163363475 1 1 0
869 290 8 0.41 28.888008588407047 -7.347115773130323 -8.591462282291594 0 1 1
2892 964 8 0.41 30.83679783122529 -10.283026012439214 -7.2792330865909545 -1 1 1
2891 964 8 0.41 32.29405365899889 -10.396151375769014 -6.5380780175563435 -1 1 1
2890 964 7 -0.82 31.42550054071515 -9.800555352490301 -6.563616771512359 -1 1 1
2312 771 8 0.41 31.537165786807364 -8.060836165801728 -6.493069669748072 -1 1 0
2311 771 7 -0.82 31.95752753590469 -7.113594507455403 -6.490637661075147 -1 1 0
3150 1050 8 0.41 -31.799301721604508 10.58533199137427 7.39743633565242 1 0 0
114 38 8 0.41 29.836676121875684 -9.414729406611599 9.955510508268967 0 1 -1
112 38 7 -0.82 30.579201072829356 -9.047665650569073 9.328553691688002 0 1 -1
113 38 8 0.41 30.139888379353735 -8.34211684509189 8.712132182501408 0 1 -1
2236 746 7 -0.82 29.88403118343026 -5.545167236399771 -6.5945592194646405 0 0 0
2237 746 8 0.41 30.827512316646718 -5.998351011541683 -6.592848748116151 0 0 0
996 332 8 0.41 29.26492216096414 10.88757666643224 -8.165855649680248 0 0 0
995 332 8 0.41 30.38421162744038 10.59765158039099 -9.43212487231639 0 0 0
994 332 7 -0.82 30.16272874874631 11.131912193210292 -8.5778722104013 0 0 0
2955 985 8 0.41 -32.39720691013881 -10.047406435459942 -4.493991105611472 1 1 0
2953 985 7 -0.82 -32.64813503483839 -10.824635116596566 -3.8679381328237508 1 1 0
2577 859 8 0.41 25.298730835540276 -8.827510152791739 -9.376402347564726 0 0 0
2657 886 8 0.41 27.499632159606783 -3.3256351124640293 -10.886244396676982 -1 0 0
2336 779 8 0.41 28.66303424384217 -5.860341639464413 -10.956976084486657 0 1 0
1892 631 8 0.41 -27.792958722000144 -2.0360853202366656 10.284491879914738 0 0 -1
2416 806 7 -0.82 -30.5427671176713 -4.937785915557952 -10.153931975872188 0 0 1
2418 806 8 0.41 -29.764655418912927 -4.401509298614005 -10.547698335189425 0 0 1
1017 339 8 0.41 -28.00918629863399 -2.2517563778561414 -7.41958038904904 0 0 0
1532 511 8 0.41 -29.438300161130233 -3.1968105624269967 -5.66024821000274 0 0 0
1016 339 8 0.41 -28.896335499256068 -1.4606043654629222 -6.367572737136304 0 0 0
1015 339 7 -0.82 -28.502616625480066 -1.3674301143170435 -7.326988677222286 0 0 0
2928 976 8 0.41 -28.94982833421672 4.414376471672291 -9.060281029877752 1 0 1
2601 867 8 0.41 -28.221406839769617 0.23493193744075747 -10.714271804976514 0 0 0
2872 958 7 -0.82 -30.545368538052422 0.47588391276640074 -8.2539455603861 0 0 0
2874 958 8 0.41 -30.11968013230661 -0.3838155000581871 -7.910605205900723 0 0 0
2172 724 8 0.41 -29.490187226840668 2.4141143860371272 -5.959696135063979 0 -1 0
1531 511 7 -0.82 -29.448101701970582 -2.6676635206494073 -4.82589443693317 0 0 0
1533 511 8 0.41 -30.40330502385021 -2.562061976606463 -4.4632947888430525 0 0 0
2926 976 7 -0.82 -28.432189485686628 3.9796256212899266 -8.29496671856428 1 0 1
1473 491 8 0.41 -25.8681757938921 0.031536249375031744 -8.519894824603933 0 0 0
1472 491 8 0.41 -26.666539579123743 -0.6234871665784176 -7.2682947499219255 0 0 0
2873 958 8 0.41 -30.62292798826953 1.0242945061698912 -7.390303925504865 0 0 0
2170 724 7 -0.82 -30.47658247025483 2.2528076471139613 -6.13518157713093 0 -1 0
2951 984 8 0.41 -30.89462715337148 1.4479241533802085 -3.383529516759184 1 0 0
1857 619 8 0.41 -28.741812595010032 1.7515900422758168 -2.9261901235328622 0 0 0
1855 619 7 -0.82 -29.670297338108504 1.95401119421434 -2.5298422777789273 0 0 0
1856 619 8 0.41 -29.84750474902291 2.959001297319279 -2.4401140896668796 0 0 0
2952 984 8 0.41 -31.49794860884824 1.5515437394079452 -4.762298230331575 1 0 0
2599 867 7 -0.82 -27.694669376447635 0.4829958214968304 -9.858895494259668 0 0 0
2927 976 8 0.41 -28.428555326105034 2.982970550222184 -8.382680837694403 1 0 1
1471 491 7 -0.82 -25.713092226259583 -0.46927267132279304 -7.657628374884246 0 0 0
474 158 8 0.41 31.968989545381618 3.1832561661315637 -8.297270716553713 0 0 0