LAMMPS data file via write_data, version 29 Aug 2024, timestep = 10000, units = real

2066 atoms
8 atom types
1396 bonds
7 bond types
773 angles
8 angle types
116 dihedrals
4 dihedral types

-21.271786278230465 21.271786278230465 xlo xhi
-11.154917245000831 11.154917245000831 ylo yhi
-11.154917245000831 11.154917245000831 zlo zhi

Atom Type Labels

1 OE
2 C
3 HC
4 H
5 CPos
6 OAlc
7 OW
8 HW

Bond Type Labels

1 g4
2 g18
3 g26
4 g27
5 g56
6 g71
7 OW-HW

Angle Type Labels

1 g12
2 g13
3 g14
4 g15
5 g51
6 g56
7 g102
8 HW-OW-HW

Dihedral Type Labels

1 g23
2 g34
3 g46
4 glj14

Masses

1 15.9994
2 12.011
3 1.008
4 1.008
5 12.011
6 15.9994
7 15.9994
8 1.008

Pair Coeffs # lj/cut/coul/long/omp

1 0.2526 2.8492
2 0.0663 3.5812
3 0.0283 2.3734
4 0 0
5 0.245 2.8114
6 0.1195 3.1
7 0.155 3.165
8 0 0

Bond Coeffs # harmonic/omp

1 1109.29 1.12
2 399.792 1.43
3 299.844 1.52
4 400.034 1.53
5 310.707 1.41
6 179.254 0.971
7 529.581 1.012

Angle Coeffs # harmonic/omp

1 47.694 109.5
2 55.1271 109.5
3 47.635 109.6
4 55.1139 111
5 54.9931 110.3
6 180.46 109
7 30.1731 110
8 37.95 113.24

Dihedral Coeffs # harmonic/omp

1 0.3011 1 3
2 1.4149 1 3
3 0.239 -1 3
4 0 1 1

Atoms # full

1105 369 7 -0.82 -20.929096255436 -8.572091342688886 -4.427131297249446 1 0 1
1588 530 7 -0.82 -19.447728037840125 -6.666778993146515 -6.010182251673538 0 0 0
315 105 8 0.41 -16.499139394623725 -8.348792420927255 -8.967730660808634 0 1 1
1504 502 7 -0.82 -19.32896434743659 -9.064407940278485 -7.208784081857164 0 0 0
1506 502 8 0.41 -19.366516978201222 -8.126748104851881 -6.744695892602511 0 0 0
1505 502 8 0.41 -20.030282294099216 -9.147223438410206 -7.944774462921149 0 0 0
373 125 7 -0.82 -17.258760377266412 -6.0411282162636235 -3.694422801842677 0 0 0
1590 530 8 0.41 -18.471095257443128 -6.4196616941633655 -5.805836633496915 0 0 0
1589 530 8 0.41 -20.016849917985557 -5.866008476914794 -6.341343103746817 0 0 0
1107 369 8 0.41 -20.231646685449796 -7.9785298401215625 -4.891264470601975 1 0 1
1323 441 8 0.41 -20.013394248745637 -2.151014738404177 -4.269559462570747 0 0 0
374 125 8 0.41 -17.82835510368772 -5.429446841146559 -3.106327919443407 0 0 0
1698 566 8 0.41 -14.691155860636105 -4.611802884473443 -5.459249939106048 0 0 0
1328 443 8 0.41 -20.895671620390765 -3.652295091990058 -5.713122455337414 0 0 0
1763 588 8 0.41 -20.377378280205622 -5.753208173847421 -9.359037738537989 1 0 1
1106 369 8 0.41 -20.774725158553494 -9.573991283902961 -4.643725490658673 1 0 1
313 105 7 -0.82 -17.01801560295042 -8.118821645530618 -9.808384158508161 0 1 1
1696 566 7 -0.82 -15.680725788340705 -4.877010708721251 -5.5921735395978365 0 0 0
590 197 8 0.41 -16.804700104069667 -6.187343250323422 -10.871574410439859 0 0 0
589 197 7 -0.82 -16.309542664304118 -5.29060436395801 -10.9058036871486 0 0 0
696 232 8 0.41 -17.628186860755246 -4.175049913850097 -8.729632463571793 0 0 0
1321 441 7 -0.82 -20.438096284054996 -3.0921506788467816 -4.199136334371511 0 0 0
314 105 8 0.41 -17.06596961879822 -8.969072473349694 -10.36334780077202 0 1 1
368 123 8 0.41 -16.879690461128035 -7.563374181730873 -4.642038926503417 0 1 0
367 123 7 -0.82 -16.384934012917718 -8.164774091326768 -5.326791907507263 0 1 0
369 123 8 0.41 -15.391805162124491 -8.035827138084981 -5.144516119760074 0 1 0
1324 442 7 -0.82 -13.091100742639028 -10.1176956810793 -9.942239228420846 0 0 0
350 117 8 0.41 -19.073451353990905 -6.960259825070908 -2.713419887949186 0 1 0
375 125 8 0.41 -16.890921705212612 -5.473786675571233 -4.483975349046035 0 0 0
1121 374 8 0.41 20.94934447736138 10.99120606446621 -9.201793447520757 -1 0 1
1120 374 7 -0.82 -20.803174953822605 -10.74087218987377 -9.489681211440258 0 1 1
1122 374 8 0.41 -20.39214859141594 10.96015424153959 -10.21694675547374 0 0 1
1718 573 8 0.41 -13.249028405912885 -6.978684162605523 -3.8604048815087486 0 0 0
1717 573 7 -0.82 -14.136934072627565 -7.492807609836044 -3.8759556091812595 0 0 0
1719 573 8 0.41 -14.036088348672738 -8.49687949989946 -4.062354951044006 0 0 0
1697 566 8 0.41 -16.035567692721095 -4.502028380593743 -6.486312017682307 0 0 0
2094 698 8 0.41 -17.02917311665201 -10.395774124120903 10.77002189992203 0 1 -1
790 264 7 -0.82 -12.830072917317798 -4.258423801755977 -5.743576487235078 0 0 0
792 264 8 0.41 -12.161212438549775 -4.848921748478376 -5.199008557218695 0 0 0
791 264 8 0.41 -12.743242205679358 -3.3066164418967396 -5.43927393814034 0 0 0
1112 371 8 0.41 -13.714690549052822 -6.979775167421219 -5.936040839319087 0 0 0
1111 371 7 -0.82 -13.27430145173915 -6.868360149109281 -6.857661365631624 0 0 0
1113 371 8 0.41 -14.059091719177712 -6.7024176338298185 -7.5094274961711545 0 0 0
867 289 8 0.41 -9.479543187559164 -4.325971766914359 -4.118755679192199 0 0 0
866 289 8 0.41 -10.673971792362073 -3.226946445410359 -3.799926254327403 0 0 0
2091 697 8 0.41 -12.198233510342167 -4.648086323639073 -7.52201873456346 0 0 0
2092 698 7 -0.82 -17.172618744194764 -10.757362616979869 -10.585662051813287 0 1 0
392 131 8 0.41 -14.156196925285208 -10.781577271682707 -4.639594097744648 0 1 1
391 131 7 -0.82 -13.547096619374557 -10.034834697271211 -4.994519083284463 0 1 1
2090 697 8 0.41 -10.654918080447523 -4.870182546883627 -8.070429285075898 0 0 0
354 118 8 0.41 -10.799490413210364 -7.886831181869454 -7.88905018303069 0 1 0
2089 697 7 -0.82 -11.58176421542413 -4.518327334346879 -8.348888428940532 0 0 0
393 131 8 0.41 -12.965247395521754 -10.370510426890666 -5.789340823955088 0 1 1
154 52 7 -0.82 -10.80355828148334 -2.064060204198629 -5.119719771210817 0 0 0
1326 442 8 0.41 -12.770320367726525 -10.448092822221978 -9.034084116073869 0 0 0
865 289 7 -0.82 -10.313144746177432 -4.148459201445185 -3.5242072247481984 0 0 0
996 332 8 0.41 -8.494881662238917 -6.129331101029484 -4.418879225612128 0 1 0
994 332 7 -0.82 -8.453485827966148 -5.284863307474124 -4.998884225748624 0 1 0
995 332 8 0.41 -7.463656103199347 -4.968118713588833 -4.935840923901654 0 1 0
352 118 7 -0.82 -9.873990749984738 -8.297650091396823 -7.79570531033631 0 1 0
1087 363 7 -0.82 -8.855850708144297 -8.07664125772073 -10.24263742770191 0 1 0
353 118 8 0.41 -9.57295124945366 -8.353910286824945 -8.782661362613936 0 1 0
341 114 8 0.41 -8.668293270482755 -5.280487956538998 -6.870165056295068 0 0 0
1386 462 8 0.41 -7.770651304172364 -8.332049966316784 -6.402043581426403 0 0 0
340 114 7 -0.82 -8.873359410252128 -4.817973219718225 -7.792834933124322 0 0 0
1384 462 7 -0.82 -7.089113084633934 -8.93755617724172 -5.954921321091785 0 0 0
342 114 8 0.41 -8.28627755601224 -5.1203499237001315 -8.57274427866096 0 0 0
1978 660 7 -0.82 -5.718684730185582 -5.334552536993365 -5.510861691856502 0 0 0
431 144 8 0.41 -3.2029518778722528 -8.468458270158653 -6.69602595816089 0 1 0
1980 660 8 0.41 -5.438917263579248 -5.415980631684309 -6.503246146802967 0 0 0
682 228 7 -0.82 -4.632594720416859 -7.515560650352974 -7.525075111057927 0 0 0
684 228 8 0.41 -4.705124533667804 -6.500619130744114 -7.773467431876848 0 0 0
789 263 8 0.41 -6.341492207600125 11.027010733915551 -2.524051173945889 0 0 0
1110 370 8 0.41 -4.136916970255371 -10.867856638019614 -3.75622520977225 0 0 0
787 263 7 -0.82 -5.895133279075279 -10.803816363151547 -3.332707492009912 0 1 0
910 304 7 -0.82 -4.1840364908718515 -3.1703888093426222 -9.495453250947266 0 0 0
788 263 8 0.41 -6.2103027773478265 10.911483865923826 -4.13092776550556 0 0 0
1750 584 7 -0.82 -5.4653235050798115 -5.106349547989346 -8.388742732808621 0 1 0
1752 584 8 0.41 -6.351505905879077 -5.36307915288467 -8.877868375656345 0 1 0
129 43 8 0.41 -2.703165131691315 -9.372097359366553 -9.250393382224866 0 1 1
1385 462 8 0.41 -6.994345706548095 -9.84202363789417 -6.435687118542158 0 0 0
717 239 8 0.41 -5.296021640877291 11.003170868227938 -10.356126000242108 0 0 0
1721 574 8 0.41 -7.003375826989859 -10.740129163170625 -8.443301933245383 0 1 0
1722 574 8 0.41 -8.469338514287998 10.9725758980332 -7.886886848155008 0 0 0
1720 574 7 -0.82 -7.532833794496383 -10.9355541146814 -7.603010379144541 0 1 0
704 235 8 0.41 -10.650190141318655 -9.703897239727514 -6.842949149336115 0 1 0
703 235 7 -0.82 -11.195779548136299 -10.569020435952845 -6.9075813789988665 0 1 0
680 227 8 0.41 -4.667808995647943 -8.382395129351412 -9.141151039543454 0 1 0
679 227 7 -0.82 -4.2803847749351265 -8.960490831840392 -9.881534557444182 0 1 0
432 144 8 0.41 -1.9578052795950185 -7.911839876605983 -5.678981500532799 0 1 0
430 144 7 -0.82 -2.181743430140874 -8.451441981910598 -6.558237873445387 0 1 0
128 43 8 0.41 -1.5013739904098464 -9.285568145347437 -8.157490152587307 0 1 1
1751 584 8 0.41 -4.851389889474533 -4.471499879805038 -8.93944183696198 0 1 0
1272 424 8 0.41 -0.4824952793320144 -8.62860764558747 -7.029363424295714 0 1 0
1270 424 7 -0.82 0.47557993956011935 -8.539991540886545 -7.409972867645006 0 1 0
1271 424 8 0.41 0.8544589568151216 -9.483548881762538 -7.615737690488997 0 1 0
1109 370 8 0.41 -3.163754058871576 -9.771993140224893 -4.202403253394114 0 0 0
674 225 8 0.41 -1.579549847335145 -6.822369786488215 -2.9900157075231864 0 0 0
673 225 7 -0.82 -1.6659740506929424 -7.475302878250611 -3.7808473892232994 0 0 0
535 179 7 -0.82 -1.9719802305998015 -6.773626782134682 -9.64030942820308 0 1 0
536 179 8 0.41 -1.6117364177287328 -6.765512299458318 -8.694455892504434 0 1 0
284 95 8 0.41 1.1337275798224014 10.510078964764835 -7.221050019122144 0 -1 1
283 95 7 -0.82 1.1893626962269217 -11.099588949523959 -7.950553779556008 0 0 1
912 304 8 0.41 -3.1866966897182296 -3.3238270153050884 -9.72675392991847 0 0 0
1213 405 7 -0.82 -0.8732938311785653 -3.4546618658533372 -6.248387171502375 0 1 0
1571 524 8 0.41 3.4827543150993234 -7.785859511889425 -5.651483424074363 0 1 0
1572 524 8 0.41 2.8827790359949814 -7.0628741537637785 -4.29528287881601 0 1 0
1570 524 7 -0.82 3.1394248969705485 -6.913098700233059 -5.2835579280552265 0 1 0
2052 684 8 0.41 2.8891044878074785 -4.866725098612716 -7.7004833471963146 0 0 0
360 120 8 0.41 2.008517376918525 -6.418928142174346 -2.135656790747886 0 0 0
266 89 8 0.41 0.3459943544526026 -1.0862866563989508 -7.768530690814023 0 0 0
127 43 7 -0.82 -1.8040675252479133 -9.828186132089 -8.988806054752134 0 1 1
952 318 7 -0.82 -2.1743930149398 -4.379744288665648 -10.698843676181085 0 0 0
953 318 8 0.41 -2.2985044823731338 -5.24489863151381 -10.159648800802184 0 0 0
1132 378 7 -0.82 2.8152086706691035 -7.644875120231633 -8.535223599584748 0 1 0
1134 378 8 0.41 2.9085716993926125 -6.6224202841286 -8.589267591654766 0 1 0
2051 684 8 0.41 2.1311539509421165 -4.3767526324480635 -9.05541036973729 0 0 0
2050 684 7 -0.82 2.9041553333236214 -4.942429403042927 -8.718484268246343 0 0 0
872 291 8 0.41 1.05554937828867 -9.209296080874969 -2.540482150191533 0 1 0
1133 378 8 0.41 1.8554021782666965 -7.6386018743681285 -8.14603695969339 0 1 0
1498 500 7 -0.82 2.367372446947857 -9.904799239193542 -3.754300854648344 0 1 0
537 179 8 0.41 -1.223661720347416 -6.950717971880426 -10.304872327906965 0 1 0
1203 401 8 0.41 0.9728578716809714 -8.709790876073328 10.994331989108945 0 1 -1
1201 401 7 -0.82 1.6689373114453148 -8.00573669037316 -11.055949128807198 0 1 0
1202 401 8 0.41 2.093607688634175 -8.092932872241121 -10.139881269662478 0 1 0
1510 504 7 -0.82 5.434184946899069 -5.190027653892072 -9.940485878041722 0 1 0
1511 504 8 0.41 4.593598829104123 -5.4018949481035445 -9.399800469581946 0 1 0
1512 504 8 0.41 6.081768010750269 -5.008876942686971 -9.158696649658955 0 1 0
959 320 8 0.41 5.353380861754874 -8.985440968239823 -5.789042367612987 0 1 0
2042 681 8 0.41 3.3436004548869667 10.221129519539764 -5.986624110444754 0 -1 0
2043 681 8 0.41 4.841085028679863 10.924514681609393 -5.386402104339639 0 -1 0
1261 421 7 -0.82 8.548233048602086 -8.344133269230362 -6.309017563798135 0 1 0
1263 421 8 0.41 8.873695896969146 -7.366131523179625 -6.280880692696834 0 1 0
1262 421 8 0.41 9.0812854856377 -8.826065251612844 -5.554689626365414 0 1 0
1264 422 7 -0.82 6.239221534932336 -4.206355121118342 -7.670302319245973 0 0 0
958 320 7 -0.82 5.300382885122043 -9.646068674795679 -4.979406115276614 0 1 0
924 308 8 0.41 3.9302771634163554 -8.852106155736251 -8.856648207819411 0 1 1
923 308 8 0.41 5.440326311715565 -9.064573312115423 -8.20817287716998 0 1 1
960 320 8 0.41 6.079761556389829 -9.333782392982195 -4.362516691108925 0 1 0
922 308 7 -0.82 4.799899928609203 -9.448308426109271 -8.928985279622934 0 1 1
1949 650 8 0.41 5.9400230556273526 -5.830407748457735 10.999360637037269 0 0 -1
796 266 7 -0.82 6.8430935478442185 -9.171628472115062 -2.9503010718434854 0 0 0
797 266 8 0.41 6.135135745988161 -8.901055033945363 -2.265722933687435 0 0 0
309 103 8 0.41 14.533035511736557 -6.7549678463392695 -10.06816528399191 0 0 0
1265 422 8 0.41 5.81864784671357 -3.2674228617294885 -7.559748899651113 0 0 0
1500 500 8 0.41 3.370049958335996 -9.807891082864357 -3.961992018000677 0 1 0
685 229 7 -0.82 9.113339514756511 -10.263968984154856 -8.329761311934924 0 1 1
686 229 8 0.41 8.799331630051238 -9.579822636810565 -7.631097340521176 0 1 1
857 286 8 0.41 7.0225502409731275 -8.348211527164029 -6.690574678140536 0 1 0
856 286 7 -0.82 6.040786172116998 -8.025827394224612 -6.819124953202634 0 1 0
858 286 8 0.41 6.175430550513833 -7.003899956763158 -6.823485316845034 0 1 0
725 242 8 0.41 8.91158825974263 -2.6190097311549376 -4.366286421225634 0 0 0
726 242 8 0.41 9.214437352322697 -4.274490995495067 -4.643054487573439 0 0 0
724 242 7 -0.82 8.522117906029166 -3.5107019358728193 -4.738286340869105 0 0 0
798 266 8 0.41 7.4501086205195035 -8.341867133513885 -2.8598468684761986 0 0 0
1315 439 7 -0.82 10.561788765962866 -8.25069473931124 -9.488294126315695 0 1 0
1004 335 8 0.41 10.575085548817317 -7.317224481110168 -7.837027707111377 0 1 0
1003 335 7 -0.82 10.595363650414921 -6.535803817816157 -7.1805647868859666 0 1 0
1005 335 8 0.41 10.619202403500697 -5.759793198172552 -7.847290126387945 0 1 0
307 103 7 -0.82 14.281733196462795 -6.146867013877638 -9.300569221409367 0 0 0
308 103 8 0.41 14.794482653654619 -6.4859752679667135 -8.482970352408827 0 0 0
1630 544 7 -0.82 12.435134182873142 -10.922666302628802 -6.058037580875419 0 0 0
1995 665 8 0.41 12.555152379211165 -5.394114386882683 -8.33707335503788 0 0 0
1311 437 8 0.41 11.280144821852389 -4.684063022303041 -10.735354661413998 -1 0 0
172 58 7 -0.82 10.281826878962363 -5.81568931389215 -4.537943389018656 0 1 0
174 58 8 0.41 10.309329070766186 -5.821425534282697 -5.566320289169596 0 1 0
1993 665 7 -0.82 12.40336679325052 -4.421335732140793 -8.071169942970425 0 0 0
1994 665 8 0.41 13.288866971614532 -3.91079829882671 -8.220986096602669 0 0 0
1468 490 7 -0.82 10.262154984790069 -2.0192737323252157 -8.616759779162571 0 0 1
1586 529 8 0.41 13.647720011659878 -6.758726922408595 -2.823148692079851 0 0 0
576 192 8 0.41 14.621876443075152 -2.069603411742605 -9.073336842106677 -1 0 0
1469 490 8 0.41 10.81445816886265 -2.837989986077588 -8.82484469953212 0 0 1
1585 529 7 -0.82 13.715672318767801 -5.789163238143423 -3.190117081473562 0 0 0
1317 439 8 0.41 10.430821353026289 -8.024168660999909 -10.48781768550994 0 1 0
1632 544 8 0.41 12.240695772791774 10.926520339192342 -6.94696366190483 0 -1 0
1631 544 8 0.41 13.264890160799936 -10.316173896759018 -6.2205536888069535 0 0 0
877 293 7 -0.82 16.12197847125698 -4.343942193266239 -10.331467544180155 0 0 0
975 325 8 0.41 13.871228752916828 -8.77950098757791 -9.532545732703516 0 1 0
1865 622 8 0.41 12.537395246164287 -8.780341612567906 -2.184617078048136 0 0 1
1864 622 7 -0.82 13.48110381441522 -8.581028490418776 -2.5117811060622817 0 0 1
1866 622 8 0.41 13.83974470888451 -9.508222363437262 -2.780598018748277 0 0 1
1470 490 8 0.41 9.541103777497696 -2.109373148169869 -9.309381573110471 0 0 1
575 192 8 0.41 13.730300185083571 -1.2950083868482845 -7.946891502006496 -1 0 0
687 229 8 0.41 9.519417613072026 -9.694003088580127 -9.09388359675749 0 1 1
1316 439 8 0.41 11.549776457136005 -8.465571644786692 -9.344521392630078 0 1 0
365 122 8 0.41 7.987720771714861 -10.74564875353081 -4.35433504598933 0 0 0
1900 634 7 -0.82 10.30231359740738 -9.320900520544182 -4.503379951174643 0 0 0
1901 634 8 0.41 10.953020564108378 -9.75190954379591 -5.172869795560958 0 0 0
973 325 7 -0.82 13.097758235279748 -8.927839199623902 -8.898672582416358 0 1 0
974 325 8 0.41 13.378591641101266 -8.659281360357905 -7.950883067582558 0 1 0
173 58 8 0.41 10.830880787856017 -6.625533442471009 -4.260623695295066 0 1 0
1654 552 7 -0.82 13.683320751063718 10.750394858052212 -3.0459367736108565 0 -1 0
879 293 8 0.41 15.328402136955873 -4.801325692151318 -9.886687335859962 0 0 0
1762 588 7 -0.82 -20.847366744638364 -6.65652514831065 -9.12932899765253 1 0 1
1764 588 8 0.41 21.090199103098975 -6.508121488928072 -8.340936013404256 0 0 1
69 23 8 0.41 -21.269180175993704 -9.441639072026714 -10.422649276869263 0 0 1
841 281 7 -0.82 18.771059592655355 -8.939900260632713 -6.920041247297093 0 0 0
843 281 8 0.41 19.261806994279034 -8.170038000015088 -6.488764625901802 0 0 0
2070 690 8 0.41 14.85309570965044 -8.033531129413277 -6.2818507796525465 0 0 0
2069 690 8 0.41 15.267559633565966 -9.51796621058586 -6.358167777622653 0 0 0
890 297 8 0.41 16.753442877757593 -6.435399764648099 -5.453320433100586 0 0 0
2068 690 7 -0.82 14.430768063889126 -8.931189749797323 -6.52981315181291 0 0 0
909 303 8 0.41 15.855206971606691 -3.740584085808509 -6.55422154153186 -1 0 1
889 297 7 -0.82 16.484262995495776 -6.916124758267932 -6.333201701079624 0 0 0
891 297 8 0.41 17.301624608546717 -7.046992901837926 -6.9500537035246746 0 0 0
878 293 8 0.41 16.821317509059355 -5.086374347429114 -10.529192847581294 0 0 0
1010 337 8 0.41 19.1337059050096 -6.353057020513488 -4.517713455588758 0 1 1
1009 337 7 -0.82 19.55867585082568 -7.001807523391967 -5.172329216217019 0 1 1
1011 337 8 0.41 20.350144760798308 -7.5414474796419055 -4.728053528214553 0 1 1
104 35 8 0.41 15.417317195120482 -5.6990525541633215 -3.850552322387779 0 0 1
966 322 8 0.41 18.381473441863783 -6.322050664005108 -9.6017274406396 0 0 0
965 322 8 0.41 18.864922282245786 -7.450894051902129 -8.42173384096658 0 0 0
964 322 7 -0.82 18.25134401088159 -6.6492346679444845 -8.620143572557803 0 0 0
19 7 7 -0.82 16.7411783025455 -10.155336690995306 -5.455551966974778 0 1 0
842 281 8 0.41 18.082517180525386 -9.396777675955205 -6.301522366298386 0 0 0
103 35 7 -0.82 16.455658596525154 -5.677708723468708 -3.717751807972955 0 0 1
1322 441 8 0.41 -20.834587649300037 -3.383487083313927 -3.3202556045908462 0 0 0
907 303 7 -0.82 15.277616609181308 -4.45330867742254 -6.987410868371512 -1 0 1
919 307 7 -0.82 18.736780852882426 -4.39180416258253 -3.377727350816926 0 0 0
920 307 8 0.41 18.996485325069507 -4.270953289576355 -2.391397058086225 0 0 0
921 307 8 0.41 17.81369493690044 -4.8329449828617275 -3.368623268303658 0 0 0
1892 631 8 0.41 19.83941905812872 -3.138884026830718 -9.609357979494314 -1 0 1
112 38 7 -0.82 -18.014707800468535 -4.069328339301003 -1.8836902362047603 1 1 0
1327 443 7 -0.82 -21.128965946091128 -4.232243149359196 -6.552617105853662 0 0 0
1329 443 8 0.41 20.68992534293463 -4.869816877891522 -6.2213347388671565 -1 0 0
114 38 8 0.41 -17.839279710651834 -3.6677950262531454 -0.9427957975946432 1 1 0
1293 431 8 0.41 -20.391419610902975 -3.8160338925341097 -8.120178577994249 1 0 0
694 232 7 -0.82 -16.84912581697415 -4.096671434238419 -8.073074290561081 0 0 0
1291 431 7 -0.82 -19.66883430855105 -3.71263468815272 -8.830763968256548 1 0 0
177 59 8 0.41 -16.865585283504874 1.0309050179888268 -7.8061033683849494 0 0 0
175 59 7 -0.82 -16.60519046629706 0.06902660877501161 -7.557680658359981 0 0 0
176 59 8 0.41 -15.97614667108694 -0.2509272253264056 -8.276822299587767 0 0 0
344 115 8 0.41 -18.560356320570897 -0.35762046763401417 -4.2994941472506945 1 0 1
1983 661 8 0.41 19.44266650984231 3.8416904586132254 -9.344544068134482 -1 0 1
1863 621 8 0.41 20.116257016962898 1.4516685965268967 -6.8145424022657455 -1 0 1
345 115 8 0.41 -18.982584207638144 -0.8739668071794463 -5.796790874534549 1 0 1
343 115 7 -0.82 -19.34147074435747 -0.7278444611998777 -4.848804022868407 1 0 1
1473 491 8 0.41 -20.032624501201816 -0.7804078446671953 -8.710240319018393 1 0 1
1471 491 7 -0.82 -21.031240958227592 -0.9426761221986305 -8.878993255123683 1 0 1
1861 621 7 -0.82 20.796790576911768 2.186079307787171 -7.038057415477894 -1 0 1
2061 687 8 0.41 -20.02773643768083 1.6877222602432125 -6.631210607749643 1 0 1
1862 621 8 0.41 20.704731320844473 2.955643798784081 -6.4024295381849985 -1 0 1
1195 399 7 -0.82 -18.379519316413635 -0.9764799384151442 -10.181769723404745 0 0 0
1196 399 8 0.41 -18.11286921411472 -0.20080249320680127 -10.801047063420217 0 0 0
955 319 7 -0.82 -16.539195151541826 2.608677873678408 -4.2161135163976935 0 0 0
956 319 8 0.41 -15.986734754074057 3.2660728905698004 -3.6404944035928306 0 0 0
957 319 8 0.41 -17.575127545760463 2.619578569739012 -4.0849532320788615 0 0 0
2059 687 7 -0.82 -19.0914722391841 1.6561476385389733 -6.1984794278858795 1 0 1
2060 687 8 0.41 -18.966397410066836 1.3650860711466153 -5.21446484027388 1 0 1
1635 545 8 0.41 -17.944497454012435 1.9791102674109096 -10.11957904432987 0 0 0
1982 661 8 0.41 20.519503273958087 3.3682639938195464 -8.319908802405273 -1 0 1
1292 431 8 0.41 -19.235910748634097 -2.812767478520694 -8.593402940054576 1 0 0
188 63 8 0.41 -15.971085227645833 -3.714457275693575 -4.43027133806475 0 0 0
645 215 8 0.41 -17.68626098161087 -2.632669457672799 -7.500877229181262 0 0 0
187 63 7 -0.82 -15.860311824080554 -3.0933623157774264 -3.6087116776240737 0 0 0
113 38 8 0.41 -17.1480566866413 -3.844649913623594 -2.385808971555063 1 1 0
130 44 7 -0.82 -20.959037617240067 -0.05246784740776904 -1.102436181951182 0 0 0
830 277 8 0.41 -19.050464669125503 2.0788085626596917 -2.3815250632751024 1 0 0
829 277 7 -0.82 -19.172914650789288 2.0962689142367896 -3.3868537056761063 1 0 0
189 63 8 0.41 -15.774866010950596 -2.1030559892589373 -3.912939935237726 0 0 0
132 44 8 0.41 21.058585672929716 -0.9185605385087002 -0.9154851248484733 -1 0 0
131 44 8 0.41 -21.14618716557875 0.0934994290232732 -2.0842806007796355 0 0 0
356 119 8 0.41 -14.046686095933557 -1.4952900341410855 -5.835490577320609 0 0 0
355 119 7 -0.82 -14.924299289905889 -1.7688173821939375 -6.238678592968967 0 0 0
695 232 8 0.41 -16.053783921640917 -3.867314678395074 -8.657332089956176 0 0 0
357 119 8 0.41 -15.357678253657953 -0.9068122932387458 -6.542349383323868 0 0 0
1165 389 7 -0.82 -12.667098877016592 0.01783985937480088 -7.710879765073338 0 0 0
1167 389 8 0.41 -12.234537599491354 -0.5040322218175907 -8.470972962315203 0 0 0
1433 478 8 0.41 -10.96794728175681 -2.453304632235538 -8.349491777809705 0 0 0
1432 478 7 -0.82 -11.031626786127214 -1.7708256425149165 -9.092903762377667 0 0 0
1434 478 8 0.41 -11.228506632017881 -2.2154229789800954 -9.992061991865379 0 0 0
1166 389 8 0.41 -11.94166453326801 0.17453505554195897 -7.000254668605872 0 0 0
651 217 8 0.41 -9.768337440414374 4.497125255778242 -9.168958775149925 0 0 0
650 217 8 0.41 -9.900365925535214 3.791993513761584 -7.708068262840282 0 0 0
932 311 8 0.41 -9.649127392933172 1.0495555121175213 -5.610706701945352 0 0 0
931 311 7 -0.82 -10.275323893605337 0.5378618634292919 -6.25153101823387 0 0 0
853 285 7 -0.82 -14.07031991988303 4.00487072627565 -10.541665025759821 0 0 0
643 215 7 -0.82 -18.350860241357374 -1.8590315954678476 -7.410663642576831 0 0 0
1671 557 8 0.41 -7.980898565922554 -0.47991968981894056 -2.3025958021312096 0 0 1
1669 557 7 -0.82 -7.878340995566137 0.16032430026592676 -3.0986364372776496 0 0 1
644 215 8 0.41 -17.782400183819803 -1.003158945687128 -7.246821882236503 0 0 0
649 217 7 -0.82 -9.513460772321062 3.631949751738391 -8.651719822308488 0 0 0
855 285 8 0.41 -13.88599698386607 3.419504367361931 -9.690520943233022 0 0 0
155 52 8 0.41 -11.09225753020862 -1.568444886841393 -4.270074420274147 0 0 0
156 52 8 0.41 -10.685158809103386 -1.3578844100987555 -5.8413262558538825 0 0 0
1670 557 8 0.41 -7.854471987602715 -0.46662661075997586 -3.9292664611856782 0 0 1
1785 595 8 0.41 -14.21878447919693 -3.4181851964070686 -8.18695861651916 0 0 1
1783 595 7 -0.82 -14.118888780829485 -4.260507403547699 -8.766668180399165 0 0 1
933 311 8 0.41 -9.750027424484838 0.18036179860962936 -7.058168135655272 0 0 0
707 236 8 0.41 -10.098062127537307 6.533351154836106 -3.5236559023015985 0 0 0
1545 515 8 0.41 -13.163657417556095 1.4295373390358141 -8.309268750632953 0 -1 0
854 285 8 0.41 -13.841979253323245 4.969757261037811 -10.355498728249431 0 0 0
1544 515 8 0.41 -13.812960008848968 2.750651311462464 -7.667212438947182 0 -1 0
1543 515 7 -0.82 -13.537805102025597 2.373406461768054 -8.559232817689171 0 -1 0
268 90 7 -0.82 -13.205230826316729 0.3186002903244594 -4.849603626487239 0 -1 0
270 90 8 0.41 -12.491092381141772 0.11134988698529631 -4.139998268796174 0 -1 0
269 90 8 0.41 -14.050155787464366 -0.1516620193245261 -4.480438344962983 0 -1 0
118 40 7 -0.82 -13.793815530047777 3.0277689244992274 -5.3415289943366115 0 0 0
120 40 8 0.41 -13.434301280608821 2.0781446453432633 -5.134054014264076 0 0 0
1784 595 8 0.41 -13.101603104679366 -4.354925292631657 -8.910479414488986 0 0 1
599 200 8 0.41 -8.867279578144762 -1.3930442819906992 -8.639652612559505 0 0 0
1979 660 8 0.41 -5.051586272882742 -5.638212328465737 -4.780470279051817 0 0 0
408 136 8 0.41 -6.820443854471098 -1.442437752549557 -7.477081418865364 0 0 0
406 136 7 -0.82 -5.818074293345606 -1.2754944576794147 -7.258934972249111 0 0 0
407 136 8 0.41 -5.332404842612301 -2.1068182059595006 -7.622413705640206 0 0 0
708 236 8 0.41 -9.22169923588673 5.320517582161861 -2.7186283293504534 0 0 0
598 200 7 -0.82 -8.308524749509603 -1.7493112925219807 -7.855678153583497 0 0 0
450 150 8 0.41 -9.68150822582313 -3.054612655123103 10.747742118024549 0 0 -1
448 150 7 -0.82 -9.109504310308946 -3.347815986970817 -10.76072582609439 0 0 0
600 200 8 0.41 -8.576118244441501 -2.732145375416515 -7.827048578075047 0 0 0
1818 606 8 0.41 -8.172220360327309 -1.9019727155037958 -5.938329760502087 0 0 0
449 150 8 0.41 -8.585576338629487 -2.4663471194308446 -10.572102318037073 0 0 0
2115 701 3 0.082 -3.0048484935307167 0.7532336190837386 -4.134129431605074 0 0 0
2119 701 3 0.083 -5.327123444901388 -2.510618822307549 -4.1475184567051295 0 0 0
1007 336 8 0.41 -7.312833598437936 3.2259934251196025 -6.4414977680798335 0 0 0
1006 336 7 -0.82 -7.209243425764874 3.828941988920377 -5.602956346173864 0 0 0
1008 336 8 0.41 -7.868550740435722 4.600455597956328 -5.767742347414893 0 0 0
2114 701 3 0.082 -2.4104693708901737 -0.9352147307023416 -3.8673277245486446 0 0 0
573 191 8 0.41 -4.571137094651488 2.679130197033791 -8.924382547837302 0 0 1
1817 606 8 0.41 -6.590847095090864 -1.5622510403271994 -5.36159560445931 0 0 0
1816 606 7 -0.82 -7.592051212782809 -1.6373362307635768 -5.1447149656783875 0 0 0
571 191 7 -0.82 -5.389718142987589 2.1548616657431285 -9.208583205035389 0 0 1
2016 672 8 0.41 -8.403307161515317 2.3871497353561573 -8.032936308967013 0 0 0
2014 672 7 -0.82 -7.590708538209175 1.9989697675579607 -7.518733402336147 0 0 0
2015 672 8 0.41 -6.9600707427592505 1.6078908439743491 -8.21774890522954 0 0 0
1966 656 7 -0.82 -3.2875600787559174 4.138453514193612 -8.570258567633024 0 0 1
1967 656 8 0.41 -3.0063230610789526 3.5974009704557997 -7.722679387872343 0 0 1
4 2 7 -0.82 -2.34966556617895 2.3865445974622954 -6.061343782039971 0 0 -1
5 2 8 0.41 -3.134243664426468 2.7844210997565533 -5.50066230415538 0 0 -1
1541 514 8 0.41 -7.100933665546964 1.6981854529320264 -3.173725060589309 0 -1 0
1540 514 7 -0.82 -6.6498362345711 2.6356609795046975 -3.2623944977257837 0 -1 0
1215 405 8 0.41 -1.6421044004266114 -2.7722249098555967 -6.194586370756925 0 1 0
265 89 7 -0.82 0.445039052641632 -1.94775620283831 -8.334263272647073 0 0 0
267 89 8 0.41 -0.29017623863814357 -2.5471478800208924 -7.95192139650535 0 0 0
1622 541 8 0.41 -1.9175314525949865 -2.6462216281795463 10.999414813174363 0 1 0
203 68 8 0.41 2.137331112913997 -1.7665958328465285 -8.322857055099517 0 0 0
6 2 8 0.41 -1.4307540092679687 2.8352641462936568 -5.910233784307822 0 0 -1
1214 405 8 0.41 -0.6211917289051642 -3.752754709468987 -5.293737190524056 0 1 0
1623 541 8 0.41 -1.471244087107366 -1.0108220416178109 11.119301688405509 0 1 0
560 187 8 0.41 -2.7591014201661332 0.6455044493154495 -6.490062198301189 0 0 0
561 187 8 0.41 -3.5202901283628174 -0.49585062340907465 -7.316448217204858 0 0 0
1486 496 7 -0.82 0.06637696141003525 0.3403436822013253 -6.765235078982155 0 0 0
559 187 7 -0.82 -2.6458629860415224 -0.31494756454302947 -6.859912294430218 0 0 0
457 153 7 -0.82 1.974528330195603 -4.518991573464378 -6.281476201598954 0 0 1
458 153 8 0.41 0.9981604736546529 -4.285354678493542 -6.47371856460962 0 0 1
459 153 8 0.41 2.179611755057336 -5.5060902763863755 -6.027865992198416 0 0 1
700 234 7 -0.82 -0.8115428880446957 -3.9745535485116887 -3.6088609589632954 0 0 0
701 234 8 0.41 -0.8248632948583862 -3.047855963103915 -3.1558282624064216 0 0 0
1487 496 8 0.41 0.37179675893514663 0.31191782954965835 -5.789743151381254 0 0 0
1488 496 8 0.41 -0.9480102403202942 0.22835738890548268 -6.731821488582715 0 0 0
702 234 8 0.41 -0.8318660017523322 -4.647168613049455 -2.817274176018012 0 0 0
1621 541 7 -0.82 -2.1756608489392706 -1.6824006270509761 10.773426327558115 0 1 0
1071 357 8 0.41 1.0444201092667413 0.8508573545212047 -8.25367553102714 0 0 0
1069 357 7 -0.82 1.7526771691963028 0.9594204633445428 -8.982998892010967 0 0 0
1956 652 8 0.41 3.0848464607651556 2.209454554214892 -9.659305266247054 0 0 0
1955 652 8 0.41 4.435374392597928 2.7342573939776944 -10.309540599876245 0 0 0
948 316 8 0.41 1.9643913290106163 4.0386713662058735 -7.46770566104038 0 0 1
946 316 7 -0.82 2.776252209472811 4.109613105226382 -8.09360854193726 0 0 1
947 316 8 0.41 2.994284389959641 5.111890875407129 -8.136913048580736 0 0 1
608 203 8 0.41 1.0934734982764234 -0.9760487400343366 -3.435178083868527 0 0 0
607 203 7 -0.82 0.5197763190952386 -0.16009685980531269 -3.75120481196039 0 0 0
609 203 8 0.41 0.03194743019947944 0.26658439498304337 -2.9501223906764853 0 0 0
753 251 8 0.41 0.36204931994160383 2.341846145894859 -6.301420872760834 0 0 0
751 251 7 -0.82 0.059212021093208674 3.1347411174838005 -5.734950370604514 0 0 0