ITEM: TIMESTEP
0
ITEM: NUMBER OF ENTRIES
20
ITEM: BOX BOUNDS pp pp pp
-2.1271786278230465e+01 2.1271786278230465e+01
-1.1154917245000831e+01 1.1154917245000831e+01
-1.1154917245000831e+01 1.1154917245000831e+01
ITEM: ENTRIES index c_dphi c_prop
1 -108.147 1 
2 -96.3987 1 
3 -144.53 3 
4 160.371 1 
5 109.484 1 
6 -179.116 3 
7 86.5594 1 
8 67.3005 2 
9 86.3735 1 
10 100.613 3 
11 148.972 1 
12 -151.45 1 
13 -106.035 3 
14 -173.964 1 
15 141.908 1 
16 -176.553 1 
17 176.196 2 
18 169.368 1 
19 70.4256 1 
20 134.461 3 
ITEM: TIMESTEP
100
ITEM: NUMBER OF ENTRIES
20
ITEM: BOX BOUNDS pp pp pp
-2.1271786278230465e+01 2.1271786278230465e+01
-1.1154917245000831e+01 1.1154917245000831e+01
-1.1154917245000831e+01 1.1154917245000831e+01
ITEM: ENTRIES index c_dphi c_prop
1 -85.0791 1 
2 -108.909 1 
3 -157.205 3 
4 139.053 1 
5 110.997 1 
6 168.117 3 
7 88.1841 1 
8 65.3478 2 
9 106.858 1 
10 139.185 3 
11 -171.759 1 
12 -176.948 1 
13 -125.233 3 
14 162.085 1 
15 172.217 1 
16 151.482 1 
17 165.516 2 
18 168.171 1 
19 55.6711 1 
20 113.052 3 
ITEM: TIMESTEP
200
ITEM: NUMBER OF ENTRIES
20
ITEM: BOX BOUNDS pp pp pp
-2.1271786278230465e+01 2.1271786278230465e+01
-1.1154917245000831e+01 1.1154917245000831e+01
-1.1154917245000831e+01 1.1154917245000831e+01
ITEM: ENTRIES index c_dphi c_prop
1 -74.0578 1 
2 -138.344 1 
3 -146.546 3 
4 117.081 1 
5 140.686 1 
6 154.537 3 
7 110.509 1 
8 74.66 2 
9 94.0721 1 
10 135.075 3 
11 -167.535 1 
12 179.986 1 
13 -132.702 3 
14 175.828 1 
15 178.466 1 
16 151.479 1 
17 -176.075 2 
18 136.051 1 
19 86.9526 1 
20 119.188 3 
ITEM: TIMESTEP
300
ITEM: NUMBER OF ENTRIES
20
ITEM: BOX BOUNDS pp pp pp
-2.1271786278230465e+01 2.1271786278230465e+01
-1.1154917245000831e+01 1.1154917245000831e+01
-1.1154917245000831e+01 1.1154917245000831e+01
ITEM: ENTRIES index c_dphi c_prop
1 -100.72 1 
2 -167.286 1 
3 -100.47 3 
4 95.4745 1 
5 162.052 1 
6 136.982 3 
7 130.334 1 
8 58.5933 2 
9 70.5017 1 
10 93.2497 3 
11 -174.183 1 
12 -151.836 1 
13 -129.355 3 
14 179.147 1 
15 175.856 1 
16 174.88 1 
17 175.34 2 
18 139.758 1 
19 53.7466 1 
20 129.054 3 
ITEM: TIMESTEP
400
ITEM: NUMBER OF ENTRIES
20
ITEM: BOX BOUNDS pp pp pp
-2.1271786278230465e+01 2.1271786278230465e+01
-1.1154917245000831e+01 1.1154917245000831e+01
-1.1154917245000831e+01 1.1154917245000831e+01
ITEM: ENTRIES index c_dphi c_prop
1 -102.923 1 
2 173.667 1 
3 -53.0359 3 
4 90.5762 1 
5 -177.03 1 
6 109.69 3 
7 127.634 1 
8 51.7965 2 
9 61.8436 1 
10 95.4091 3 
11 -164.482 1 
12 176.834 1 
13 -148.591 3 
14 -179.336 1 
15 161.324 1 
16 -178.284 1 
17 169.828 2 
18 114.691 1 
19 89.8604 1 
20 135.257 3 
ITEM: TIMESTEP
500
ITEM: NUMBER OF ENTRIES
20
ITEM: BOX BOUNDS pp pp pp
-2.1271786278230465e+01 2.1271786278230465e+01
-1.1154917245000831e+01 1.1154917245000831e+01
-1.1154917245000831e+01 1.1154917245000831e+01
ITEM: ENTRIES index c_dphi c_prop
1 -102.762 1 
2 -164.558 1 
3 -97.6525 3 
4 117.568 1 
5 146.142 1 
6 138.625 3 
7 118.87 1 
8 60.4582 2 
9 68.6829 1 
10 119.193 3 
11 -149.812 1 
12 -171.872 1 
13 -150.642 3 
14 147.104 1 
15 159.735 1 
16 151.299 1 
17 168.154 2 
18 104.942 1 
19 86.3404 1 
20 133.719 3 
ITEM: TIMESTEP
600
ITEM: NUMBER OF ENTRIES
20
ITEM: BOX BOUNDS pp pp pp
-2.1271786278230465e+01 2.1271786278230465e+01
-1.1154917245000831e+01 1.1154917245000831e+01
-1.1154917245000831e+01 1.1154917245000831e+01
ITEM: ENTRIES index c_dphi c_prop
1 -63.3526 1 
2 -162.617 1 
3 -118.976 3 
4 112.985 1 
5 132.112 1 
6 143.579 3 
7 126.956 1 
8 53.9315 2 
9 81.7176 1 
10 151.772 3 
11 -141.962 1 
12 141.733 1 
13 -157.405 3 
14 159.647 1 
15 173.606 1 
16 149.888 1 
17 -179.726 2 
18 119.704 1 
19 85.9103 1 
20 104.437 3 
ITEM: TIMESTEP
700
ITEM: NUMBER OF ENTRIES
20
ITEM: BOX BOUNDS pp pp pp
-2.1271786278230465e+01 2.1271786278230465e+01
-1.1154917245000831e+01 1.1154917245000831e+01
-1.1154917245000831e+01 1.1154917245000831e+01
ITEM: ENTRIES index c_dphi c_prop
1 -88.4399 1 
2 -154.049 1 
3 -106.687 3 
4 151.39 1 
5 106.31 1 
6 157.384 3 
7 123.327 1 
8 13.9626 2 
9 73.8723 1 
10 154.396 3 
11 -168.91 1 
12 130.342 1 
13 -158.395 3 
14 175.213 1 
15 150.277 1 
16 152.609 1 
17 174.585 2 
18 156.834 1 
19 45.3903 1 
20 145.24 3 
ITEM: TIMESTEP
800
ITEM: NUMBER OF ENTRIES
20
ITEM: BOX BOUNDS pp pp pp
-2.1271786278230465e+01 2.1271786278230465e+01
-1.1154917245000831e+01 1.1154917245000831e+01
-1.1154917245000831e+01 1.1154917245000831e+01
ITEM: ENTRIES index c_dphi c_prop
1 -127.307 1 
2 177.816 1 
3 -83.1097 3 
4 159.507 1 
5 105.283 1 
6 137.146 3 
7 156.597 1 
8 71.8628 2 
9 50.7054 1 
10 174.467 3 
11 -152.312 1 
12 112.901 1 
13 -161.845 3 
14 177.819 1 
15 175.975 1 
16 144.569 1 
17 -170.81 2 
18 150.261 1 
19 66.315 1 
20 127.26 3 
ITEM: TIMESTEP
900
ITEM: NUMBER OF ENTRIES
20
ITEM: BOX BOUNDS pp pp pp
-2.1271786278230465e+01 2.1271786278230465e+01
-1.1154917245000831e+01 1.1154917245000831e+01
-1.1154917245000831e+01 1.1154917245000831e+01
ITEM: ENTRIES index c_dphi c_prop
1 -99.2842 1 
2 -163.692 1 
3 -116.509 3 
4 153.279 1 
5 91.6449 1 
6 143.273 3 
7 140.29 1 
8 43.9257 2 
9 70.7664 1 
10 156.276 3 
11 -166.598 1 
12 128.552 1 
13 -157.912 3 
14 -176.356 1 
15 -172.273 1 
16 166.686 1 
17 173.82 2 
18 124.679 1 
19 73.1393 1 
20 124.733 3 
ITEM: TIMESTEP
1000
ITEM: NUMBER OF ENTRIES
20
ITEM: BOX BOUNDS pp pp pp
-2.1271786278230465e+01 2.1271786278230465e+01
-1.1154917245000831e+01 1.1154917245000831e+01
-1.1154917245000831e+01 1.1154917245000831e+01
ITEM: ENTRIES index c_dphi c_prop
1 -75.2242 1 
2 -149.208 1 
3 -130.409 3 
4 156.69 1 
5 99.2752 1 
6 125.215 3 
7 140.444 1 
8 52.4927 2 
9 68.943 1 
10 102.235 3 
11 170.172 1 
12 166.624 1 
13 -103.764 3 
14 -164.449 1 
15 -162.529 1 
16 -179.147 1 
17 -164.816 2 
18 121.363 1 
19 80.569 1 
20 102.69 3 
ITEM: TIMESTEP
1100
ITEM: NUMBER OF ENTRIES
20
ITEM: BOX BOUNDS pp pp pp
-2.1271786278230465e+01 2.1271786278230465e+01
-1.1154917245000831e+01 1.1154917245000831e+01
-1.1154917245000831e+01 1.1154917245000831e+01
ITEM: ENTRIES index c_dphi c_prop
1 -100.036 1 
2 -168.344 1 
3 -98.3322 3 
4 165.266 1 
5 89.8952 1 
6 127.996 3 
7 165.147 1 
8 61.9396 2 
9 100.716 1 
10 67.2533 3 
11 143.575 1 
12 -176.39 1 
13 -111.132 3 
14 -169.512 1 
15 179.569 1 
16 -146.558 1 
17 155.842 2 
18 92.5059 1 
19 78.9449 1 
20 116.414 3 
ITEM: TIMESTEP
1200
ITEM: NUMBER OF ENTRIES
20
ITEM: BOX BOUNDS pp pp pp
-2.1271786278230465e+01 2.1271786278230465e+01
-1.1154917245000831e+01 1.1154917245000831e+01
-1.1154917245000831e+01 1.1154917245000831e+01
ITEM: ENTRIES index c_dphi c_prop
1 -145.104 1 
2 157.178 1 
3 -52.5273 3 
4 160.95 1 
5 79.7198 1 
6 126.892 3 
7 -156.743 1 
8 63.0852 2 
9 131.136 1 
10 60.2248 3 
11 135.669 1 
12 -160.41 1 
13 -141.608 3 
14 172.118 1 
15 -156.978 1 
16 -165.683 1 
17 176.857 2 
18 89.4729 1 
19 81.3601 1 
20 97.4031 3 
ITEM: TIMESTEP
1300
ITEM: NUMBER OF ENTRIES
20
ITEM: BOX BOUNDS pp pp pp
-2.1271786278230465e+01 2.1271786278230465e+01
-1.1154917245000831e+01 1.1154917245000831e+01
-1.1154917245000831e+01 1.1154917245000831e+01
ITEM: ENTRIES index c_dphi c_prop
1 -134.038 1 
2 166.253 1 
3 -72.4415 3 
4 155.133 1 
5 116.289 1 
6 95.8259 3 
7 -160.833 1 
8 64.2679 2 
9 156.743 1 
10 77.2809 3 
11 135.936 1 
12 169.133 1 
13 -150.36 3 
14 167.35 1 
15 -156.932 1 
16 -177.145 1 
17 159.455 2 
18 92.5387 1 
19 71.3482 1 
20 107.824 3 
ITEM: TIMESTEP
1400
ITEM: NUMBER OF ENTRIES
20
ITEM: BOX BOUNDS pp pp pp
-2.1271786278230465e+01 2.1271786278230465e+01
-1.1154917245000831e+01 1.1154917245000831e+01
-1.1154917245000831e+01 1.1154917245000831e+01
ITEM: ENTRIES index c_dphi c_prop
1 -75.0295 1 
2 -154.321 1 
3 -145.125 3 
4 135.433 1 
5 128.253 1 
6 82.897 3 
7 173.857 1 
8 76.8698 2 
9 -161.826 1 
10 79.0972 3 
11 136.476 1 
12 -172.689 1 
13 -167.617 3 
14 134.925 1 
15 -174.327 1 
16 -170.42 1 
17 -172.907 2 
18 90.3804 1 
19 90.2773 1 
20 110.479 3 
ITEM: TIMESTEP
1500
ITEM: NUMBER OF ENTRIES
20
ITEM: BOX BOUNDS pp pp pp
-2.1271786278230465e+01 2.1271786278230465e+01
-1.1154917245000831e+01 1.1154917245000831e+01
-1.1154917245000831e+01 1.1154917245000831e+01
ITEM: ENTRIES index c_dphi c_prop
1 -77.2364 1 
2 -149.824 1 
3 -161.596 3 
4 141.502 1 
5 136.963 1 
6 102.284 3 
7 -170.466 1 
8 58.1411 2 
9 171.755 1 
10 78.7205 3 
11 119.391 1 
12 175.238 1 
13 -159.876 3 
14 -155.91 1 
15 165.511 1 
16 171.28 1 
17 162.343 2 
18 109.1 1 
19 78.0744 1 
20 140.492 3 
ITEM: TIMESTEP
1600
ITEM: NUMBER OF ENTRIES
20
ITEM: BOX BOUNDS pp pp pp
-2.1271786278230465e+01 2.1271786278230465e+01
-1.1154917245000831e+01 1.1154917245000831e+01
-1.1154917245000831e+01 1.1154917245000831e+01
ITEM: ENTRIES index c_dphi c_prop
1 -76.2383 1 
2 -163.756 1 
3 -143.927 3 
4 157.372 1 
5 163.619 1 
6 72.0896 3 
7 165.901 1 
8 86.0716 2 
9 176.648 1 
10 96.8926 3 
11 111.036 1 
12 177.775 1 
13 -144.901 3 
14 -115.172 1 
15 159.063 1 
16 164.06 1 
17 169.882 2 
18 113.844 1 
19 82.658 1 
20 159.081 3 
ITEM: TIMESTEP
1700
ITEM: NUMBER OF ENTRIES
20
ITEM: BOX BOUNDS pp pp pp
-2.1271786278230465e+01 2.1271786278230465e+01
-1.1154917245000831e+01 1.1154917245000831e+01
-1.1154917245000831e+01 1.1154917245000831e+01
ITEM: ENTRIES index c_dphi c_prop
1 -133.218 1 
2 171.359 1 
3 -55.1981 3 
4 159.327 1 
5 -174.682 1 
6 48.3343 3 
7 -178.93 1 
8 56.5211 2 
9 173.687 1 
10 134.53 3 
11 132.371 1 
12 171.633 1 
13 169.867 3 
14 -159.532 1 
15 175.697 1 
16 154.234 1 
17 -179.843 2 
18 110.121 1 
19 88.0449 1 
20 160.312 3 
ITEM: TIMESTEP
1800
ITEM: NUMBER OF ENTRIES
20
ITEM: BOX BOUNDS pp pp pp
-2.1271786278230465e+01 2.1271786278230465e+01
-1.1154917245000831e+01 1.1154917245000831e+01
-1.1154917245000831e+01 1.1154917245000831e+01
ITEM: ENTRIES index c_dphi c_prop
1 -157.427 1 
2 171.859 1 
3 -68.0304 3 
4 172.21 1 
5 -163.72 1 
6 87.2489 3 
7 169.121 1 
8 62.3677 2 
9 139.843 1 
10 140.108 3 
11 -174.883 1 
12 168.238 1 
13 113.92 3 
14 167.475 1 
15 166.282 1 
16 -178.741 1 
17 179.986 2 
18 81.407 1 
19 79.1086 1 
20 159.753 3 
ITEM: TIMESTEP
1900
ITEM: NUMBER OF ENTRIES
20
ITEM: BOX BOUNDS pp pp pp
-2.1271786278230465e+01 2.1271786278230465e+01
-1.1154917245000831e+01 1.1154917245000831e+01
-1.1154917245000831e+01 1.1154917245000831e+01
ITEM: ENTRIES index c_dphi c_prop
1 -145.242 1 
2 174.358 1 
3 -98.0467 3 
4 159.65 1 
5 -167.466 1 
6 80.4836 3 
7 148.532 1 
8 73.0089 2 
9 152.445 1 
10 130.807 3 
11 -176.235 1 
12 145.158 1 
13 119.752 3 
14 164.935 1 
15 -178.924 1 
16 -152.239 1 
17 156.072 2 
18 71.6523 1 
19 79.9806 1 
20 161.422 3 
ITEM: TIMESTEP
2000
ITEM: NUMBER OF ENTRIES
20
ITEM: BOX BOUNDS pp pp pp
-2.1271786278230465e+01 2.1271786278230465e+01
-1.1154917245000831e+01 1.1154917245000831e+01
-1.1154917245000831e+01 1.1154917245000831e+01
ITEM: ENTRIES index c_dphi c_prop
1 -166.899 1 
2 -172.386 1 
3 -78.9467 3 
4 177.013 1 
5 175.68 1 
6 54.5893 3 
7 -177.845 1 
8 93.2702 2 
9 179.408 1 
10 83.0279 3 
11 163.92 1 
12 -169.606 1 
13 159.392 3 
14 152.216 1 
15 -168.508 1 
16 -167.946 1 
17 -157.629 2 
18 128.583 1 
19 28.5421 1 
20 144.928 3 
ITEM: TIMESTEP
2100
ITEM: NUMBER OF ENTRIES
20
ITEM: BOX BOUNDS pp pp pp
-2.1271786278230465e+01 2.1271786278230465e+01
-1.1154917245000831e+01 1.1154917245000831e+01
-1.1154917245000831e+01 1.1154917245000831e+01
ITEM: ENTRIES index c_dphi c_prop
1 146.363 1 
2 -178.752 1 
3 -167.997 1 
4 -92.3286 3 
5 177.549 1 
6 162.989 1 
7 81.2846 3 
8 -163.769 1 
9 62.9827 2 
10 175.85 1 
11 124.046 3 
12 123.149 1 
13 -164.753 1 
14 -174.959 3 
15 165.943 1 
16 113.709 1 
17 -179.553 2 
18 108.435 1 
19 112.261 1 
20 153.474 3 
ITEM: TIMESTEP
2200
ITEM: NUMBER OF ENTRIES
20
ITEM: BOX BOUNDS pp pp pp
-2.1271786278230465e+01 2.1271786278230465e+01
-1.1154917245000831e+01 1.1154917245000831e+01
-1.1154917245000831e+01 1.1154917245000831e+01
ITEM: ENTRIES index c_dphi c_prop
1 163.593 1 
2 176.044 1 
3 -145.679 1 
4 -102.056 3 
5 -175.873 1 
6 174.587 1 
7 94.0231 3 
8 -149.118 1 
9 55.4372 2 
10 165.092 1 
11 165.117 3 
12 161.351 1 
13 -174.468 1 
14 -159.547 3 
15 155.058 1 
16 78.3965 1 
17 179.402 2 
18 79.2864 1 
19 118.739 1 
20 140.996 3 
ITEM: TIMESTEP
2300
ITEM: NUMBER OF ENTRIES
20
ITEM: BOX BOUNDS pp pp pp
-2.1271786278230465e+01 2.1271786278230465e+01
-1.1154917245000831e+01 1.1154917245000831e+01
-1.1154917245000831e+01 1.1154917245000831e+01
ITEM: ENTRIES index c_dphi c_prop
1 177.958 1 
2 -172.497 1 
3 -174.653 1 
4 -53.5745 3 
5 -160.863 1 
6 163.201 1 
7 93.2195 3 
8 -155.726 1 
9 52.4504 2 
10 176.887 1 
11 -177.547 3 
12 162.52 1 
13 -176.17 1 
14 -157.205 3 
15 165.53 1 
16 83.9856 1 
17 173.265 2 
18 59.2763 1 
19 88.3899 1 
20 135.374 3 
ITEM: TIMESTEP
2400
ITEM: NUMBER OF ENTRIES
20
ITEM: BOX BOUNDS pp pp pp
-2.1271786278230465e+01 2.1271786278230465e+01
-1.1154917245000831e+01 1.1154917245000831e+01
-1.1154917245000831e+01 1.1154917245000831e+01
ITEM: ENTRIES index c_dphi c_prop
1 159.206 1 
2 -163.81 1 
3 159.617 1 
4 -27.4399 3 
5 179.963 1 
6 -173.249 1 
7 46.644 3 
8 -161.964 1 
9 48.1583 2 
10 -149.087 1 
11 -176.255 3 
12 -162.671 1 
13 -152.629 1 
14 -169.479 3 
15 163.226 1 
16 74.6806 1 
17 176.107 2 
18 74.3042 1 
19 75.0276 1 
20 127.123 3 
ITEM: TIMESTEP
2500
ITEM: NUMBER OF ENTRIES
20
ITEM: BOX BOUNDS pp pp pp
-2.1271786278230465e+01 2.1271786278230465e+01
-1.1154917245000831e+01 1.1154917245000831e+01
-1.1154917245000831e+01 1.1154917245000831e+01
ITEM: ENTRIES index c_dphi c_prop
1 -179.708 1 
2 -162.314 1 
3 162.308 1 
4 -56.7542 3 
5 153.249 1 
6 169.127 1 
7 77.9781 3 
8 165.512 1 
9 63.6139 2 
10 -137.617 1 
11 162.72 3 
12 -155.608 1 
13 -150.013 1 
14 -164.807 3 
15 142.324 1 
16 85.3661 1 
17 168.242 2 
18 64.0515 1 
19 85.5156 1 
20 127.302 3 
ITEM: TIMESTEP
2600
ITEM: NUMBER OF ENTRIES
20
ITEM: BOX BOUNDS pp pp pp
-2.1271786278230465e+01 2.1271786278230465e+01
-1.1154917245000831e+01 1.1154917245000831e+01
-1.1154917245000831e+01 1.1154917245000831e+01
ITEM: ENTRIES index c_dphi c_prop
1 -164.266 1 
2 -150.148 1 
3 -145.808 1 
4 -86.8373 3 
5 129.76 1 
6 177.357 1 
7 73.7133 3 
8 -173.73 1 
9 52.9109 2 
10 -133.466 1 
11 145.185 3 
12 -166.198 1 
13 -160.809 1 
14 -142.059 3 
15 151.105 1 
16 98.4151 1 
17 -137.001 2 
18 62.9978 1 
19 86.6344 1 
20 120.254 3 
ITEM: TIMESTEP
2700
ITEM: NUMBER OF ENTRIES
20
ITEM: BOX BOUNDS pp pp pp
-2.1271786278230465e+01 2.1271786278230465e+01
-1.1154917245000831e+01 1.1154917245000831e+01
-1.1154917245000831e+01 1.1154917245000831e+01
ITEM: ENTRIES index c_dphi c_prop
1 -177.546 1 
2 -143.052 1 
3 -137.19 1 
4 -98.6872 3 
5 114.752 1 
6 -171.51 1 
7 47.0696 3 
8 -177.52 1 
9 68.8887 2 
10 -119.491 1 
11 155.933 3 
12 169.741 1 
13 175.13 1 
14 -143.186 3 
15 158.087 1 
16 113.813 1 
17 -160.39 2 
18 93.7372 1 
19 86.9857 1 
20 119.623 3 
ITEM: TIMESTEP
2800
ITEM: NUMBER OF ENTRIES
20
ITEM: BOX BOUNDS pp pp pp
-2.1271786278230465e+01 2.1271786278230465e+01
-1.1154917245000831e+01 1.1154917245000831e+01
-1.1154917245000831e+01 1.1154917245000831e+01
ITEM: ENTRIES index c_dphi c_prop
1 -169.996 1 
2 -125.954 1 
3 -166.035 1 
4 -91.2821 3 
5 104.467 1 
6 -165.173 1 
7 38.9752 3 
8 -179.958 1 
9 67.9404 2 
10 -113.721 1 
11 148.381 3 
12 155.981 1 
13 -174.616 1 
14 -126.556 3 
15 165.016 1 
16 119.835 1 
17 147.038 2 
18 68.47 1 
19 87.2324 1 
20 134.375 3 
ITEM: TIMESTEP
2900
ITEM: NUMBER OF ENTRIES
20
ITEM: BOX BOUNDS pp pp pp
-2.1271786278230465e+01 2.1271786278230465e+01
-1.1154917245000831e+01 1.1154917245000831e+01
-1.1154917245000831e+01 1.1154917245000831e+01
ITEM: ENTRIES index c_dphi c_prop
1 176.417 1 
2 -134.01 1 
3 159.649 1 
4 -48.49 3 
5 101.793 1 
6 -168.334 1 
7 41.1047 3 
8 159.2 1 
9 65.5968 2 
10 -105.077 1 
11 120.305 3 
12 148.239 1 
13 -175.705 1 
14 -141.169 3 
15 -177.107 1 
16 162.849 1 
17 175.441 2 
18 90.0122 1 
19 57.8552 1 
20 113.018 3 
ITEM: TIMESTEP
3000
ITEM: NUMBER OF ENTRIES
20
ITEM: BOX BOUNDS pp pp pp
-2.1271786278230465e+01 2.1271786278230465e+01
-1.1154917245000831e+01 1.1154917245000831e+01
-1.1154917245000831e+01 1.1154917245000831e+01
ITEM: ENTRIES index c_dphi c_prop
1 -143.98 1 
2 80.1798 1 
3 152.136 1 
4 -27.0688 3 
5 175.948 1 
6 44.7009 3 
7 -170.789 1 
8 158.196 1 
9 64.7321 2 
10 -104.012 1 
11 96.8357 3 
12 141.365 1 
13 -177.909 1 
14 -124.489 3 
15 148.009 1 
16 -159.284 1 
17 78.753 1 
18 158.978 3 
19 -171.051 2 
20 108.966 1 
ITEM: TIMESTEP
3100
ITEM: NUMBER OF ENTRIES
20
ITEM: BOX BOUNDS pp pp pp
-2.1271786278230465e+01 2.1271786278230465e+01
-1.1154917245000831e+01 1.1154917245000831e+01
-1.1154917245000831e+01 1.1154917245000831e+01
ITEM: ENTRIES index c_dphi c_prop
1 -162.337 1 
2 129.103 1 
3 -157.194 1 
4 -65.3332 3 
5 167.399 1 
6 52.467 3 
7 -164.942 1 
8 -174.48 1 
9 66.2203 2 
10 -118.803 1 
11 127.987 3 
12 179.859 1 
13 176.954 1 
14 -143.833 3 
15 145.225 1 
16 176.258 1 
17 108.005 1 
18 -173.969 3 
19 -166.228 2 
20 138.657 1 
ITEM: TIMESTEP
3200
ITEM: NUMBER OF ENTRIES
20
ITEM: BOX BOUNDS pp pp pp
-2.1271786278230465e+01 2.1271786278230465e+01
-1.1154917245000831e+01 1.1154917245000831e+01
-1.1154917245000831e+01 1.1154917245000831e+01
ITEM: ENTRIES index c_dphi c_prop
1 -153.853 1 
2 160.025 1 
3 -152.403 1 
4 -89.5867 3 
5 -173.566 1 
6 58.5677 3 
7 -164.048 1 
8 -176.454 1 
9 56.501 2 
10 -147.368 1 
11 166.28 3 
12 -171.214 1 
13 -175.658 1 
14 -144.841 3 
15 171.833 1 
16 142.285 1 
17 143.085 1 
18 161.61 3 
19 162.164 2 
20 159.707 1 
ITEM: TIMESTEP
3300
ITEM: NUMBER OF ENTRIES
20
ITEM: BOX BOUNDS pp pp pp
-2.1271786278230465e+01 2.1271786278230465e+01
-1.1154917245000831e+01 1.1154917245000831e+01
-1.1154917245000831e+01 1.1154917245000831e+01
ITEM: ENTRIES index c_dphi c_prop
1 158.231 1 
2 176.12 1 
3 -134.826 1 
4 -43.3755 3 
5 179.933 1 
6 53.8268 3 
7 170.784 1 
8 -173.511 1 
9 64.1154 2 
10 176.479 1 
11 134.652 3 
12 169.392 1 
13 -155.796 1 
14 -153.519 3 
15 175.112 1 
16 150.102 1 
17 166.797 1 
18 162.434 3 
19 176.628 2 
20 -147.091 1 
ITEM: TIMESTEP
3400
ITEM: NUMBER OF ENTRIES
20
ITEM: BOX BOUNDS pp pp pp
-2.1271786278230465e+01 2.1271786278230465e+01
-1.1154917245000831e+01 1.1154917245000831e+01
-1.1154917245000831e+01 1.1154917245000831e+01
ITEM: ENTRIES index c_dphi c_prop
1 -160.385 1 
2 153.982 1 
3 -164.758 1 
4 -42.4042 3 
5 169.825 1 
6 74.2619 3 
7 -171.29 1 
8 164.039 1 
9 79.3261 2 
10 143.982 1 
11 101.644 3 
12 178.284 1 
13 -150.062 1 
14 -149.754 3 
15 137.605 1 
16 174.612 1 
17 154.983 1 
18 -156.332 3 
19 -175.475 2 
20 -154.186 1 
ITEM: TIMESTEP
3500
ITEM: NUMBER OF ENTRIES
20
ITEM: BOX BOUNDS pp pp pp
-2.1271786278230465e+01 2.1271786278230465e+01
-1.1154917245000831e+01 1.1154917245000831e+01
-1.1154917245000831e+01 1.1154917245000831e+01
ITEM: ENTRIES index c_dphi c_prop
1 -167.714 1 
2 175.845 1 
3 -149.997 1 
4 -47.388 3 
5 177.957 1 
6 77.8837 3 
7 171.791 1 
8 158.528 1 
9 33.8394 2 
10 161.41 1 
11 170.388 3 
12 -153.255 1 
13 -165.123 1 
14 173.878 3 
15 155.61 1 
16 121.117 1 
17 -172.593 1 
18 -141.099 3 
19 175.376 2 
20 172.015 1 
ITEM: TIMESTEP
3600
ITEM: NUMBER OF ENTRIES
20
ITEM: BOX BOUNDS pp pp pp
-2.1271786278230465e+01 2.1271786278230465e+01
-1.1154917245000831e+01 1.1154917245000831e+01
-1.1154917245000831e+01 1.1154917245000831e+01
ITEM: ENTRIES index c_dphi c_prop
1 -172.466 1 
2 176.278 1 
3 179.1 1 
4 -52.904 3 
5 170.536 1 
6 91.1396 3 
7 141.849 1 
8 80.2847 1 
9 124.348 2 
10 -163.083 1 
11 155.139 3 
12 -176.009 1 
13 -124.69 1 
14 172.106 3 
15 170.465 1 
16 109.844 1 
17 -177.469 1 
18 172.637 3 
19 -171.034 2 
20 -164.935 1 
ITEM: TIMESTEP
3700
ITEM: NUMBER OF ENTRIES
20
ITEM: BOX BOUNDS pp pp pp
-2.1271786278230465e+01 2.1271786278230465e+01
-1.1154917245000831e+01 1.1154917245000831e+01
-1.1154917245000831e+01 1.1154917245000831e+01
ITEM: ENTRIES index c_dphi c_prop
1 -152.034 1 
2 178.245 1 
3 173.815 1 
4 -92.7361 3 
5 169.722 1 
6 99.3131 3 
7 168.65 1 
8 80.3861 1 
9 147.585 2 
10 -123.463 1 
11 153.164 3 
12 144.27 1 
13 -135.361 1 
14 -177.181 3 
15 -158.577 1 
16 129.792 1 
17 164.199 1 
18 177.226 3 
19 161.55 2 
20 174.92 1 
ITEM: TIMESTEP
3800
ITEM: NUMBER OF ENTRIES
20
ITEM: BOX BOUNDS pp pp pp
-2.1271786278230465e+01 2.1271786278230465e+01
-1.1154917245000831e+01 1.1154917245000831e+01
-1.1154917245000831e+01 1.1154917245000831e+01
ITEM: ENTRIES index c_dphi c_prop
1 -89.4114 1 
2 159.534 1 
3 172.86 1 
4 -169.562 3 
5 140.495 1 
6 139.36 3 
7 159.905 1 
8 57.3871 1 
9 -171.277 2 
10 -117.751 1 
11 157.518 3 
12 146.156 1 
13 -134.113 1 
14 139.971 3 
15 -160.934 1 
16 99.2854 1 
17 168.876 1 
18 161.918 3 
19 176.318 2 
20 -168.805 1 
ITEM: TIMESTEP
3900
ITEM: NUMBER OF ENTRIES
20
ITEM: BOX BOUNDS pp pp pp
-2.1271786278230465e+01 2.1271786278230465e+01
-1.1154917245000831e+01 1.1154917245000831e+01
-1.1154917245000831e+01 1.1154917245000831e+01
ITEM: ENTRIES index c_dphi c_prop
1 -75.8385 1 
2 168.345 1 
3 140.126 1 
4 -133.826 3 
5 147.365 1 
6 107.58 3 
7 174.364 1 
8 74.2566 1 
9 -174.209 2 
10 -132.858 1 
11 153.97 3 
12 147.431 1 
13 -119.125 1 
14 -176.803 3 
15 -178.875 1 
16 71.4482 1 
17 -172.617 1 
18 160.667 3 
19 -177.739 2 
20 -164.851 1 
ITEM: TIMESTEP
4000
ITEM: NUMBER OF ENTRIES
20
ITEM: BOX BOUNDS pp pp pp
-2.1271786278230465e+01 2.1271786278230465e+01
-1.1154917245000831e+01 1.1154917245000831e+01
-1.1154917245000831e+01 1.1154917245000831e+01
ITEM: ENTRIES index c_dphi c_prop
1 -116.937 1 
2 155.471 1 
3 136.424 1 
4 -76.0589 3 
5 167.862 1 
6 76.6362 3 
7 -172.194 1 
8 90.2133 1 
9 -166.337 2 
10 -120.615 1 
11 158.547 3 
12 162.563 1 
13 -137.566 1 
14 136.762 3 
15 -175.056 1 
16 56.8958 1 
17 -166.985 1 
18 172.233 3 
19 176.717 2 
20 -163.379 1 
ITEM: TIMESTEP
4100
ITEM: NUMBER OF ENTRIES
20
ITEM: BOX BOUNDS pp pp pp
-2.1271786278230465e+01 2.1271786278230465e+01
-1.1154917245000831e+01 1.1154917245000831e+01
-1.1154917245000831e+01 1.1154917245000831e+01
ITEM: ENTRIES index c_dphi c_prop
1 159.753 1 
2 -124.957 1 
3 -163.177 1 
4 -158.717 1 
5 -123.112 3 
6 153.464 1 
7 97.8886 3 
8 103.09 1 
9 -138.579 1 
10 151.022 2 
11 177.171 3 
12 168.475 1 
13 -167.399 1 
14 116.221 3 
15 175.702 1 
16 88.7118 1 
17 155.507 1 
18 177.287 3 
19 175.404 1 
20 -175.052 2 
ITEM: TIMESTEP
4200
ITEM: NUMBER OF ENTRIES
20
ITEM: BOX BOUNDS pp pp pp
-2.1271786278230465e+01 2.1271786278230465e+01
-1.1154917245000831e+01 1.1154917245000831e+01
-1.1154917245000831e+01 1.1154917245000831e+01
ITEM: ENTRIES index c_dphi c_prop
1 152.076 1 
2 -132.371 1 
3 -161.858 1 
4 -127.336 1 
5 -139.157 3 
6 136.563 1 
7 141.483 3 
8 66.7921 1 
9 -136.822 1 
10 -160.798 2 
11 -164.895 3 
12 -179.579 1 
13 -179.252 1 
14 116.868 3 
15 171.652 1 
16 89.3188 1 
17 167.583 1 
18 -161.096 3 
19 153.335 1 
20 172.994 2 
ITEM: TIMESTEP
4300
ITEM: NUMBER OF ENTRIES
20
ITEM: BOX BOUNDS pp pp pp
-2.1271786278230465e+01 2.1271786278230465e+01
-1.1154917245000831e+01 1.1154917245000831e+01
-1.1154917245000831e+01 1.1154917245000831e+01
ITEM: ENTRIES index c_dphi c_prop
1 140.563 1 
2 -135.557 1 
3 -148.484 1 
4 -144.611 1 
5 -120.218 3 
6 146.288 1 
7 147.681 3 
8 83.701 1 
9 -150.282 1 
10 160.742 2 
11 -147.625 3 
12 -154.54 1 
13 160.746 1 
14 99.2793 3 
15 172.35 1 
16 88.242 1 
17 -178.711 1 
18 -154.864 3 
19 159.191 1 
20 178.402 2 
ITEM: TIMESTEP
4400
ITEM: NUMBER OF ENTRIES
20
ITEM: BOX BOUNDS pp pp pp
-2.1271786278230465e+01 2.1271786278230465e+01
-1.1154917245000831e+01 1.1154917245000831e+01
-1.1154917245000831e+01 1.1154917245000831e+01
ITEM: ENTRIES index c_dphi c_prop
1 134.684 1 
2 -165.061 1 
3 -164.336 1 
4 -169.776 1 
5 -68.0858 3 
6 138.031 1 
7 156.166 3 
8 79.1173 1 
9 -127.354 1 
10 -159.897 2 
11 -155.077 3 
12 170.245 1 
13 178.508 1 
14 143.093 3 
15 -172.161 1 
16 96.8195 1 
17 -171.287 1 
18 -149.888 3 
19 168.133 1 
20 143.611 2 
ITEM: TIMESTEP
4500
ITEM: NUMBER OF ENTRIES
20
ITEM: BOX BOUNDS pp pp pp
-2.1271786278230465e+01 2.1271786278230465e+01
-1.1154917245000831e+01 1.1154917245000831e+01
-1.1154917245000831e+01 1.1154917245000831e+01
ITEM: ENTRIES index c_dphi c_prop
1 98.4436 1 
2 -151.151 1 
3 -172.368 1 
4 -138.295 1 
5 -89.1744 3 
6 -170.473 1 
7 105.68 3 
8 82.0544 1 
9 -104.394 1 
10 -168.086 2 
11 -116.511 3 
12 174.634 1 
13 157.836 1 
14 132.999 3 
15 178.991 1 
16 76.7408 1 
17 143.864 1 
18 -136.165 3 
19 -178.295 1 
20 -158.962 2 
ITEM: TIMESTEP
4600
ITEM: NUMBER OF ENTRIES
20
ITEM: BOX BOUNDS pp pp pp
-2.1271786278230465e+01 2.1271786278230465e+01
-1.1154917245000831e+01 1.1154917245000831e+01
-1.1154917245000831e+01 1.1154917245000831e+01
ITEM: ENTRIES index c_dphi c_prop
1 103.154 1 
2 -146.904 1 
3 -167.992 1 
4 -165.039 1 
5 -80.4701 3 
6 -152.714 1 
7 87.7023 3 
8 86.2608 1 
9 -112.902 1 
10 167.722 2 
11 -97.3576 3 
12 173.247 1 
13 132.392 1 
14 138.223 3 
15 179.141 1 
16 95.6364 1 
17 169.89 1 
18 -106.198 3 
19 162.3 1 
20 150.731 2 
ITEM: TIMESTEP
4700
ITEM: NUMBER OF ENTRIES
20
ITEM: BOX BOUNDS pp pp pp
-2.1271786278230465e+01 2.1271786278230465e+01
-1.1154917245000831e+01 1.1154917245000831e+01
-1.1154917245000831e+01 1.1154917245000831e+01
ITEM: ENTRIES index c_dphi c_prop
1 72.6347 1 
2 -173.575 1 
3 -165.746 1 
4 171.371 1 
5 -12.2497 3 
6 140.639 1 
7 118.472 3 
8 74.4736 1 
9 -133.745 1 
10 174.639 2 
11 -113.037 3 
12 176.985 1 
13 170.051 1 
14 109.205 3 
15 -162.68 1 
16 80.1035 1 
17 146.685 1 
18 -142.952 3 
19 -163.673 1 
20 179.792 2 
ITEM: TIMESTEP
4800
ITEM: NUMBER OF ENTRIES
20
ITEM: BOX BOUNDS pp pp pp
-2.1271786278230465e+01 2.1271786278230465e+01
-1.1154917245000831e+01 1.1154917245000831e+01
-1.1154917245000831e+01 1.1154917245000831e+01
ITEM: ENTRIES index c_dphi c_prop
1 90.838 1 
2 -152.443 1 
3 -139.16 1 
4 160.149 1 
5 30.8945 3 
6 82.8685 1 
7 116.406 3 
8 91.4565 1 
9 -148.702 1 
10 163.627 2 
11 -123.49 3 
12 165.53 1 
13 -170.332 1 
14 126.443 3 
15 -167.487 1 
16 81.6134 1 
17 131.614 1 
18 -133.521 3 
19 170.838 1 
20 172.214 2 
ITEM: TIMESTEP
4900
ITEM: NUMBER OF ENTRIES
20
ITEM: BOX BOUNDS pp pp pp
-2.1271786278230465e+01 2.1271786278230465e+01
-1.1154917245000831e+01 1.1154917245000831e+01
-1.1154917245000831e+01 1.1154917245000831e+01
ITEM: ENTRIES index c_dphi c_prop
1 68.3962 1 
2 -127.867 1 
3 -125.411 1 
4 159.449 1 
5 53.6624 3 
6 73.6578 1 
7 81.2386 3 
8 83.2992 1 
9 -175.907 1 
10 -162.964 2 
11 -98.1075 3 
12 154.811 1 
13 152.126 1 
14 110.359 3 
15 172.259 1 
16 96.0293 1 
17 114.765 1 
18 -111.769 3 
19 139.956 1 
20 -178.373 2 
ITEM: TIMESTEP
5000
ITEM: NUMBER OF ENTRIES
20
ITEM: BOX BOUNDS pp pp pp
-2.1271786278230465e+01 2.1271786278230465e+01
-1.1154917245000831e+01 1.1154917245000831e+01
-1.1154917245000831e+01 1.1154917245000831e+01
ITEM: ENTRIES index c_dphi c_prop
1 97.4183 1 
2 -135.152 1 
3 -137.957 1 
4 170.3 1 
5 44.0249 3 
6 83.0966 1 
7 62.6751 3 
8 111.221 1 
9 176.577 1 
10 161.939 2 
11 -103.382 3 
12 164.115 1 
13 158.06 1 
14 124.589 3 
15 157.188 1 
16 106.906 1 
17 132.354 1 
18 -102.255 3 
19 177.694 1 
20 155.367 2 
ITEM: TIMESTEP
5100
ITEM: NUMBER OF ENTRIES
20
ITEM: BOX BOUNDS pp pp pp
-2.1271786278230465e+01 2.1271786278230465e+01
-1.1154917245000831e+01 1.1154917245000831e+01
-1.1154917245000831e+01 1.1154917245000831e+01
ITEM: ENTRIES index c_dphi c_prop
1 33.9042 3 
2 74.0093 1 
3 -149.304 1 
4 154.401 1 
5 94.0338 1 
6 83.8555 3 
7 102.433 1 
8 -161.506 1 
9 -141.004 1 
10 -169.427 2 
11 -95.5513 3 
12 158.885 1 
13 173.882 1 
14 130.499 3 
15 168.881 1 
16 84.8751 1 
17 140.457 1 
18 -136.975 3 
19 -122.965 1 
20 -156.144 2 
ITEM: TIMESTEP
5200
ITEM: NUMBER OF ENTRIES
20
ITEM: BOX BOUNDS pp pp pp
-2.1271786278230465e+01 2.1271786278230465e+01
-1.1154917245000831e+01 1.1154917245000831e+01
-1.1154917245000831e+01 1.1154917245000831e+01
ITEM: ENTRIES index c_dphi c_prop
1 22.4982 3 
2 80.3694 1 
3 -171.378 1 
4 158.488 1 
5 54.4233 1 
6 135.25 3 
7 111.154 1 
8 -172.273 1 
9 -155.505 1 
10 171.186 2 
11 -122.187 3 
12 137.17 1 
13 -170.376 1 
14 164.085 3 
15 173.899 1 
16 79.9477 1 
17 173.743 1 
18 -153.718 3 
19 -92.5134 1 
20 -158.532 2 
ITEM: TIMESTEP
5300
ITEM: NUMBER OF ENTRIES
20
ITEM: BOX BOUNDS pp pp pp
-2.1271786278230465e+01 2.1271786278230465e+01
-1.1154917245000831e+01 1.1154917245000831e+01
-1.1154917245000831e+01 1.1154917245000831e+01
ITEM: ENTRIES index c_dphi c_prop
1 28.4006 3 
2 60.0863 1 
3 -179.782 1 
4 168.161 1 
5 79.8512 1 
6 119.516 3 
7 74.2673 1 
8 169.5 1 
9 168.383 1 
10 -173.834 2 
11 -161.394 3 
12 158.821 1 
13 -132.348 1 
14 156.29 3 
15 156.891 1 
16 109.591 1 
17 172.756 1 
18 -128.568 3 
19 -99.0345 1 
20 158.397 2 
ITEM: TIMESTEP
5400
ITEM: NUMBER OF ENTRIES
20
ITEM: BOX BOUNDS pp pp pp
-2.1271786278230465e+01 2.1271786278230465e+01
-1.1154917245000831e+01 1.1154917245000831e+01
-1.1154917245000831e+01 1.1154917245000831e+01
ITEM: ENTRIES index c_dphi c_prop
1 36.7363 3 
2 90.1597 1 
3 -169.427 1 
4 171.725 1 
5 69.0292 1 
6 131.554 3 
7 56.3541 1 
8 159.481 1 
9 160.396 1 
10 175.232 2 
11 -127.588 3 
12 -169.923 1 
13 -152.007 1 
14 118.931 3 
15 174.505 1 
16 105.468 1 
17 169.62 1 
18 -140.271 3 
19 -74.1775 1 
20 168.961 2 
ITEM: TIMESTEP
5500
ITEM: NUMBER OF ENTRIES
20
ITEM: BOX BOUNDS pp pp pp
-2.1271786278230465e+01 2.1271786278230465e+01
-1.1154917245000831e+01 1.1154917245000831e+01
-1.1154917245000831e+01 1.1154917245000831e+01
ITEM: ENTRIES index c_dphi c_prop
1 41.5129 3 
2 104.306 1 
3 -135.815 1 
4 159.128 1 
5 27.3217 1 
6 136.054 3 
7 81.726 1 
8 174.888 1 
9 179.78 1 
10 -171.133 2 
11 -75.4692 3 
12 145.127 1 
13 147.758 1 
14 165.139 3 
15 174.742 1 
16 80.5707 1 
17 176.891 1 
18 -165.494 3 
19 -53.4401 1 
20 -165.747 2 
ITEM: TIMESTEP
5600
ITEM: NUMBER OF ENTRIES
20
ITEM: BOX BOUNDS pp pp pp
-2.1271786278230465e+01 2.1271786278230465e+01
-1.1154917245000831e+01 1.1154917245000831e+01
-1.1154917245000831e+01 1.1154917245000831e+01
ITEM: ENTRIES index c_dphi c_prop
1 37.8895 3 
2 113.25 1 
3 -152.106 1 
4 145.274 1 
5 37.919 1 
6 132.84 3 
7 102.744 1 
8 -173.567 1 
9 -148.866 1 
10 170.897 2 
11 -103.199 3 
12 173.72 1 
13 118.64 1 
14 160.926 3 
15 154.31 1 
16 146.632 1 
17 148.738 1 
18 -147.745 3 
19 -114.885 1 
20 -165.996 2 
ITEM: TIMESTEP
5700
ITEM: NUMBER OF ENTRIES
20
ITEM: BOX BOUNDS pp pp pp
-2.1271786278230465e+01 2.1271786278230465e+01