ITEM: TIMESTEP
25000
ITEM: NUMBER OF ENTRIES
116
ITEM: BOX BOUNDS pp pp pp
-2.1616153369672940e+01 2.1616153369672940e+01
-1.1173239517074817e+01 1.1173239517074817e+01
-1.1173239517074817e+01 1.1173239517074817e+01
ITEM: ENTRIES index c_dphi c_prop
1 -95.9659 1 
2 140.311 4 
3 15.8152 4 
4 75.447 3 
5 -59.4715 4 
6 -174.345 4 
7 66.5001 4 
8 -48.3736 4 
9 -158.581 4 
10 178.616 4 
11 63.7421 4 
12 -46.4656 4 
13 -76.2448 3 
14 150.563 4 
15 39.3347 4 
16 -95.4043 4 
17 153.368 4 
18 37.7883 4 
19 30.4895 4 
20 -80.7383 4 
21 163.682 4 
22 53.9108 4 
23 -63.201 4 
24 -179.22 4 
25 63.6681 4 
26 -67.1563 4 
27 175.732 4 
28 -40.2733 4 
29 79.7961 4 
30 159.558 1 
31 42.7602 4 
32 -76.6042 4 
33 17.1321 1 
34 -99.3385 4 
35 142.478 4 
36 70.4776 1 
37 -58.861 4 
38 -169.053 4 
39 -152.765 1 
40 -31.2315 4 
41 94.9762 4 
42 172.023 1 
43 -68.2042 4 
44 51.4498 4 
45 150.314 1 
46 -88.3164 4 
47 35.9756 4 
48 170.043 2 
49 50.8165 4 
50 -72.0708 4 
51 170.742 4 
52 47.8543 4 
53 -70.0315 4 
54 -66.1822 4 
55 170.93 4 
56 53.0446 4 
57 111.171 3 
58 109.38 4 
59 -17.473 4 
60 -128.407 4 
61 -129.22 4 
62 103.927 4 
63 -7.00653 4 
64 -11.0431 4 
65 -137.896 4 
66 -77.2239 1 
67 157.408 4 
68 41.4664 4 
69 -178.599 1 
70 -62.3452 4 
71 49.532 4 
72 163.666 3 
73 51.768 4 
74 -67.2096 4 
75 -176.122 4 
76 64.9006 4 
77 -64.2236 4 
78 -62.1159 4 
79 178.907 4 
80 49.7823 4 
81 160.084 1 
82 30.5591 4 
83 -84.9716 4 
84 -94.1857 1 
85 38.7808 4 
86 144.114 4 
87 85.5291 1 
88 -150.83 4 
89 -27.8823 4 
90 154.831 1 
91 33.086 4 
92 -85.0287 4 
93 -177.281 1 
94 -58.8299 4 
95 60.2567 4 
96 -76.8867 3 
97 164.272 4 
98 46.8136 4 
99 -76.7681 4 
100 165.774 4 
101 42.0736 4 
102 40.0047 4 
103 -77.4533 4 
104 158.846 4 
105 163.986 1 
106 37.7492 4 
107 -82.9277 4 
108 -155.044 2 
109 76.2781 4 
110 -36.6788 4 
111 -158.696 4 
112 88.3474 4 
113 -30.0174 4 
114 -41.1053 4 
115 -154.062 4 
116 87.5731 4 
ITEM: TIMESTEP
25050
ITEM: NUMBER OF ENTRIES
116
ITEM: BOX BOUNDS pp pp pp
-2.1616153369672940e+01 2.1616153369672940e+01
-1.1173239517074817e+01 1.1173239517074817e+01
-1.1173239517074817e+01 1.1173239517074817e+01
ITEM: ENTRIES index c_dphi c_prop
1 -95.8964 1 
2 146.225 4 
3 26.2587 4 
4 79.6437 3 
5 -45.6872 4 
6 -165.662 4 
7 68.3224 4 
8 -51.6524 4 
9 -166.347 4 
10 -171.618 4 
11 68.4072 4 
12 -46.287 4 
13 -69.4158 3 
14 163.065 4 
15 48.0832 4 
16 -77.8526 4 
17 167.166 4 
18 49.6666 4 
19 40.7151 4 
20 -74.2666 4 
21 168.234 4 
22 43.599 4 
23 -79.9469 4 
24 165.977 4 
25 42.4311 4 
26 -77.4775 4 
27 158.977 4 
28 -36.5324 4 
29 74.9814 4 
30 158.259 1 
31 33.0744 4 
32 -82.3407 4 
33 -51.5011 1 
34 -166.488 4 
35 69.4053 4 
36 79.4916 1 
37 -36.7753 4 
38 -159.979 4 
39 -158.811 1 
40 -33.5514 4 
41 84.537 4 
42 175.726 1 
43 -63.0151 4 
44 51.7198 4 
45 154.232 1 
46 -87.0917 4 
47 35.0391 4 
48 -169.622 2 
49 69.2412 4 
50 -44.8951 4 
51 178.389 4 
52 64.2523 4 
53 -60.4743 4 
54 -55.628 4 
55 -169.764 4 
56 65.5091 4 
57 85.3737 3 
58 80.407 4 
59 -34.7373 4 
60 -157.904 4 
61 -162.954 4 
62 81.9015 4 
63 -41.265 4 
64 -36.3155 4 
65 -151.46 4 
66 -79.8475 1 
67 166.768 4 
68 43.7862 4 
69 172.655 1 
70 -69.0073 4 
71 56.4829 4 
72 162.512 3 
73 41.7977 4 
74 -78.5719 4 
75 167.619 4 
76 47.2492 4 
77 -71.6668 4 
78 -77.3967 4 
79 162.234 4 
80 43.3176 4 
81 161.151 1 
82 38.264 4 
83 -83.1415 4 
84 -93.0691 1 
85 27.1716 4 
86 155.366 4 
87 96.3318 1 
88 -140.44 4 
89 -25.7577 4 
90 153.329 1 
91 39.0712 4 
92 -85.659 4 
93 -179.495 1 
94 -59.0875 4 
95 62.481 4 
96 -72.4822 3 
97 169.463 4 
98 45.4864 4 
99 -70.7626 4 
100 165.26 4 
101 47.2918 4 
102 53.8833 4 
103 -70.0937 4 
104 171.938 4 
105 155.314 1 
106 36.2221 4 
107 -80.6765 4 
108 -160.059 2 
109 83.4158 4 
110 -41.2387 4 
111 -162.999 4 
112 72.3462 4 
113 -46.4744 4 
114 -39.907 4 
115 -164.562 4 
116 76.6179 4 
ITEM: TIMESTEP
25100
ITEM: NUMBER OF ENTRIES
116
ITEM: BOX BOUNDS pp pp pp
-2.1616153369672940e+01 2.1616153369672940e+01
-1.1173239517074817e+01 1.1173239517074817e+01
-1.1173239517074817e+01 1.1173239517074817e+01
ITEM: ENTRIES index c_dphi c_prop
1 -76.2985 1 
2 173.444 4 
3 47.7651 4 
4 70.2897 3 
5 -47.0649 4 
6 -163.31 4 
7 73.3567 4 
8 -42.8887 4 
9 -169.289 4 
10 -168.325 4 
11 75.4294 4 
12 -50.9706 4 
13 -70.4991 3 
14 169.055 4 
15 47.8751 4 
16 -66.0044 4 
17 172.816 4 
18 54.4416 4 
19 59.5384 4 
20 -61.6415 4 
21 179.984 4 
22 33.5215 4 
23 -85.846 4 
24 147.377 4 
25 28.0092 4 
26 -95.5127 4 
27 145.12 4 
28 -57.1459 4 
29 66.2683 4 
30 168.19 1 
31 48.6371 4 
32 -72.988 4 
33 -74.8107 1 
34 167.797 4 
35 50.3812 4 
36 85.2391 1 
37 -38.9732 4 
38 -153.792 4 
39 -173.59 1 
40 -54.8331 4 
41 71.9999 4 
42 167.54 1 
43 -79.5231 4 
44 41.953 4 
45 164.681 1 
46 -78.5852 4 
47 42.1593 4 
48 -155.795 2 
49 88.1597 4 
50 -29.6478 4 
51 -153.198 4 
52 88.9941 4 
53 -37.1535 4 
54 -33.3902 4 
55 -151.198 4 
56 82.6547 4 
57 97.5956 3 
58 101.172 4 
59 -25.9112 4 
60 -148.597 4 
61 -129.153 4 
62 103.764 4 
63 -18.9222 4 
64 -12.6352 4 
65 -139.719 4 
66 -95.4401 1 
67 143.596 4 
68 27.718 4 
69 -173.586 1 
70 -50.5124 4 
71 64.4075 4 
72 -178.561 3 
73 60.5993 4 
74 -58.5897 4 
75 -175.787 4 
76 65.0243 4 
77 -54.9471 4 
78 -57.1519 4 
79 -176.341 4 
80 63.6877 4 
81 151.293 1 
82 31.3099 4 
83 -95.7384 4 
84 -100.235 1 
85 16.1948 4 
86 132.811 4 
87 30.9438 1 
88 151.01 4 
89 -85.3546 4 
90 154.798 1 
91 36.9396 4 
92 -82.2012 4 
93 -176.602 1 
94 -55.7199 4 
95 63.9548 4 
96 -74.5022 3 
97 166.388 4 
98 44.6388 4 
99 -74.3205 4 
100 163.93 4 
101 44.7891 4 
102 39.5775 4 
103 -82.1719 4 
104 158.687 4 
105 163.096 1 
106 46.9629 4 
107 -78.2681 4 
108 -165.171 2 
109 79.29 4 
110 -45.3413 4 
111 -161.048 4 
112 74.3203 4 
113 -45.5094 4 
114 -42.5634 4 
115 -167.195 4 
116 72.9757 4 
ITEM: TIMESTEP
25150
ITEM: NUMBER OF ENTRIES
116
ITEM: BOX BOUNDS pp pp pp
-2.1616153369672940e+01 2.1616153369672940e+01
-1.1173239517074817e+01 1.1173239517074817e+01
-1.1173239517074817e+01 1.1173239517074817e+01
ITEM: ENTRIES index c_dphi c_prop
1 -69.1638 1 
2 173.049 4 
3 68.7821 4 
4 89.9464 3 
5 -28.7235 4 
6 -149.644 4 
7 99.6434 4 
8 -21.2773 4 
9 -141.687 4 
10 -148.639 4 
11 90.4402 4 
12 -29.9693 4 
13 -70.1407 3 
14 174.864 4 
15 54.3968 4 
16 -53.3438 4 
17 -173.811 4 
18 61.6511 4 
19 57.6441 4 
20 -62.8235 4 
21 172.639 4 
22 38.7528 4 
23 -89.7496 4 
24 153.387 4 
25 24.8848 4 
26 -92.955 4 
27 138.543 4 
28 -62.7351 4 
29 57.8917 4 
30 161.151 1 
31 37.4098 4 
32 -82.18 4 
33 16.9167 1 
34 -104.535 4 
35 133.715 4 
36 73.5897 1 
37 -56.8978 4 
38 -169.162 4 
39 155.777 1 
40 -84.9401 4 
41 28.7741 4 
42 177.831 1 
43 -64.3181 4 
44 56.0583 4 
45 137.856 1 
46 -92.6174 4 
47 24.5741 4 
48 -166.855 2 
49 65.8667 4 
50 -56.9969 4 
51 -171.418 4 
52 65.718 4 
53 -44.1403 4 
54 -47.6795 4 
55 -170.543 4 
56 79.5987 4 
57 87.3765 3 
58 89.0189 4 
59 -22.5463 4 
60 -147.855 4 
61 -156.022 4 
62 92.4131 4 
63 -32.8952 4 
64 -35.75 4 
65 -147.315 4 
66 -84.5298 1 
67 152.77 4 
68 31.7565 4 
69 -178.231 1 
70 -55.7555 4 
71 56.3837 4 
72 -166.999 3 
73 73.4003 4 
74 -45.8866 4 
75 -169.994 4 
76 70.7195 4 
77 -50.3932 4 
78 -55.0578 4 
79 -174.345 4 
80 64.5426 4 
81 151.032 1 
82 39.8674 4 
83 -85.0824 4 
84 -114.043 1 
85 3.31381 4 
86 120.275 4 
87 22.9941 1 
88 139.925 4 
89 -95.444 4 
90 150.257 1 
91 31.7912 4 
92 -87.1112 4 
93 -178.348 1 
94 -60.2852 4 
95 57.3571 4 
96 -55.9 3 
97 -173.999 4 
98 65.2745 4 
99 -55.8791 4 
100 -176.606 4 
101 62.2194 4 
102 62.842 4 
103 -57.885 4 
104 -179.059 4 
105 164.322 1 
106 41.188 4 
107 -76.8693 4 
108 174.72 2 
109 51.8125 4 
110 -72.9761 4 
111 -179.488 4 
112 55.7234 4 
113 -56.5807 4 
114 -62.5456 4 
115 172.666 4 
116 60.3617 4 
ITEM: TIMESTEP
25200
ITEM: NUMBER OF ENTRIES
116
ITEM: BOX BOUNDS pp pp pp
-2.1616153369672940e+01 2.1616153369672940e+01
-1.1173239517074817e+01 1.1173239517074817e+01
-1.1173239517074817e+01 1.1173239517074817e+01
ITEM: ENTRIES index c_dphi c_prop
1 -76.3649 1 
2 166.121 4 
3 41.939 4 
4 103.727 3 
5 -11.7307 4 
6 -131.975 4 
7 100.778 4 
8 -19.4656 4 
9 -143.764 4 
10 -136.894 4 
11 102.862 4 
12 -21.4364 4 
13 -86.2793 3 
14 158.841 4 
15 42.6266 4 
16 -77.7984 4 
17 165.987 4 
18 37.0815 4 
19 41.8751 4 
20 -74.339 4 
21 156.755 4 
22 19.0433 4 
23 -93.8808 4 
24 133.646 4 
25 20.7219 4 
26 -103.837 4 
27 143.239 4 
28 -64.9808 4 
29 62.3985 4 
30 166.64 1 
31 48.9705 4 
32 -78.2503 4 
33 62.7572 1 
34 -59.1743 4 
35 -179.373 4 
36 59.5412 1 
37 -54.3579 4 
38 -178.478 4 
39 156.806 1 
40 -89.6559 4 
41 31.7776 4 
42 167.325 1 
43 -69.9502 4 
44 49.4768 4 
45 126.842 1 
46 -119.532 4 
47 1.39813 4 
48 179.642 2 
49 65.1544 4 
50 -50.4668 4 
51 -169.388 4 
52 74.9907 4 
53 -54.9008 4 
54 -55.9524 4 
55 -171.574 4 
56 58.5349 4 
57 93.1755 3 
58 91.7606 4 
59 -29.0658 4 
60 -145.332 4 
61 -145.525 4 
62 93.6487 4 
63 -22.6171 4 
64 -29.7323 4 
65 -150.559 4 
66 -84.5444 1 
67 151.858 4 
68 33.9172 4 
69 169.339 1 
70 -65.2857 4 
71 57.8892 4 
72 -177.433 3 
73 57.0672 4 
74 -64.2721 4 
75 -177.723 4 
76 60.9375 4 
77 -52.2233 4 
78 -71.9887 4 
79 166.672 4 
80 53.5112 4 
81 159.876 1 
82 41.1865 4 
83 -73.4646 4 
84 -99.7028 1 
85 22.7045 4 
86 141.886 4 
87 112.256 1 
88 -130.675 4 
89 -5.38711 4 
90 155.563 1 
91 32.085 4 
92 -89.6342 4 
93 -179.027 1 
94 -57.4519 4 
95 60.4921 4 
96 -54.3858 3 
97 -177.724 4 
98 66.2376 4 
99 -59.551 4 
100 -175.589 4 
101 63.7874 4 
102 66.043 4 
103 -49.9952 4 
104 -170.619 4 
105 179.911 1 
106 70.3207 4 
107 -54.8404 4 
108 160.886 2 
109 56.0348 4 
110 -79.3358 4 
111 170.664 4 
112 35.2936 4 
113 -84.4848 4 
114 -62.8947 4 
115 161.735 4 
116 41.9564 4 
ITEM: TIMESTEP
25250
ITEM: NUMBER OF ENTRIES
116
ITEM: BOX BOUNDS pp pp pp
-2.1616153369672940e+01 2.1616153369672940e+01
-1.1173239517074817e+01 1.1173239517074817e+01
-1.1173239517074817e+01 1.1173239517074817e+01
ITEM: ENTRIES index c_dphi c_prop
1 -91.6425 1 
2 140.714 4 
3 27.8305 4 
4 92.1374 3 
5 -33.525 4 
6 -158.809 4 
7 94.5364 4 
8 -30.7479 4 
9 -139.801 4 
10 -157.788 4 
11 76.9273 4 
12 -32.126 4 
13 -108.683 3 
14 132.69 4 
15 19.7699 4 
16 -114.803 4 
17 132.276 4 
18 3.8229 4 
19 0.782813 4 
20 -112.138 4 
21 119.409 4 
22 27.3144 4 
23 -98.584 4 
24 139.477 4 
25 13.5788 4 
26 -88.0765 4 
27 146.025 4 
28 -36.4331 4 
29 86.4475 4 
30 175.054 1 
31 58.7032 4 
32 -55.6724 4 
33 41.4421 1 
34 -82.4253 4 
35 165.433 4 
36 78.8925 1 
37 -49.0678 4 
38 -164.374 4 
39 151.585 1 
40 -91.2431 4 
41 28.9537 4 
42 163.683 1 
43 -77.4951 4 
44 47.1003 4 
45 133.725 1 
46 -101.626 4 
47 13.9959 4 
48 179.872 2 
49 60.7081 4 
50 -61.7216 4 
51 -176.818 4 
52 60.7522 4 
53 -57.6539 4 
54 -63.9521 4 
55 173.618 4 
56 55.2121 4 
57 79.7275 3 
58 80.3114 4 
59 -43.7122 4 
60 -159.55 4 
61 -166.288 4 
62 69.6887 4 
63 -46.1494 4 
64 -40.4108 4 
65 -164.434 4 
66 -83.1489 1 
67 158.954 4 
68 45.312 4 
69 159.25 1 
70 -82.1975 4 
71 32.9386 4 
72 154.889 3 
73 39.1974 4 
74 -77.6456 4 
75 147.524 4 
76 30.6807 4 
77 -96.7843 4 
78 -89.8265 4 
79 153.331 4 
80 25.8656 4 
81 168.429 1 
82 57.1124 4 
83 -64.7986 4 
84 -81.2626 1 
85 48.3599 4 
86 162.011 4 
87 -172.138 1 
88 -56.6169 4 
89 65.9614 4 
90 -179.456 1 
91 60.5428 4 
92 -60.5249 4 
93 179.359 1 
94 -62.8786 4 
95 61.9023 4 
96 -67.5669 3 
97 172.307 4 
98 50.1874 4 
99 -66.3565 4 
100 171.524 4 
101 53.7698 4 
102 51.4769 4 
103 -70.6425 4 
104 171.603 4 
105 -147.17 1 
106 94.5286 4 
107 -20.243 4 
108 167.297 2 
109 46.5446 4 
110 -76.123 4 
111 170.95 4 
112 48.2827 4 
113 -68.2974 4 
114 -76.4286 4 
115 160.904 4 
116 44.3237 4 
ITEM: TIMESTEP
25300
ITEM: NUMBER OF ENTRIES
116
ITEM: BOX BOUNDS pp pp pp
-2.1616153369672940e+01 2.1616153369672940e+01
-1.1173239517074817e+01 1.1173239517074817e+01
-1.1173239517074817e+01 1.1173239517074817e+01
ITEM: ENTRIES index c_dphi c_prop
1 -91.6568 1 
2 143.818 4 
3 25.62 4 
4 97.531 3 
5 -27.4954 4 
6 -156.761 4 
7 91.9127 4 
8 -37.3525 4 
9 -143.061 4 
10 -145.319 4 
11 85.4157 4 
12 -20.2927 4 
13 -149.868 3 
14 84.3734 4 
15 -39.0126 4 
16 -162.561 4 
17 74.0527 4 
18 -36.8027 4 
19 -37.9588 4 
20 -161.345 4 
21 87.7998 4 
22 25.48 4 
23 -89.2341 4 
24 145.803 4 
25 31.0889 4 
26 -93.692 4 
27 151.594 4 
28 -26.5931 4 
29 102.422 4 
30 -178.192 1 
31 61.4817 4 
32 -54.1809 4 
33 46.4885 1 
34 -69.3738 4 
35 167.969 4 
36 88.8641 1 
37 -32.8535 4 
38 -152.442 4 
39 174.577 1 
40 -57.8915 4 
41 62.8083 4 
42 157.725 1 
43 -79.8413 4 
44 37.7255 4 
45 126.549 1 
46 -114.053 4 
47 9.49652 4 
48 -154.278 2 
49 81.7241 4 
50 -31.956 4 
51 -154.881 4 
52 91.4385 4 
53 -30.883 4 
54 -40.0934 4 
55 -153.774 4 
56 83.9049 4 
57 77.6829 3 
58 75.3012 4 
59 -46.8921 4 
60 -163.392 4 
61 -160.57 4 
62 77.2372 4 
63 -39.2624 4 
64 -43.6243 4 
65 -165.818 4 
66 -99.7582 1 
67 141.07 4 
68 17.1406 4 
69 169.078 1 
70 -66.0263 4 
71 56.4217 4 
72 128.629 3 
73 4.34255 4 
74 -117.454 4 
75 125.29 4 
76 3.49299 4 
77 -110.424 4 
78 -119.326 4 
79 118.878 4 
80 4.96092 4 
81 -157.464 1 
82 85.8346 4 
83 -34.8622 4 
84 -83.0676 1 
85 45.5913 4 
86 164.302 4 
87 -126.863 1 
88 -5.62299 4 
89 117.234 4 
90 -169.044 1 
91 64.7133 4 
92 -50.181 4 
93 -177.305 1 
94 -55.0709 4 
95 61.5552 4 
96 -103.187 3 
97 136.201 4 
98 15.847 4 
99 -98.9946 4 
100 140.651 4 
101 21.6172 4 
102 15.9276 4 
103 -104.427 4 
104 136.539 4 
105 -122.359 1 
106 108.494 4 
107 -6.50671 4 
108 -168.346 2 
109 76.8422 4 
110 -49.057 4 
111 -151.97 4 
112 82.1306 4 
113 -37.1583 4 
114 -35.1171 4 
115 -161.016 4 
116 79.6948 4 
ITEM: TIMESTEP
25350
ITEM: NUMBER OF ENTRIES
116
ITEM: BOX BOUNDS pp pp pp
-2.1616153369672940e+01 2.1616153369672940e+01
-1.1173239517074817e+01 1.1173239517074817e+01
-1.1173239517074817e+01 1.1173239517074817e+01
ITEM: ENTRIES index c_dphi c_prop
1 -76.5226 1 
2 155.183 4 
3 42.3825 4 
4 93.8183 3 
5 -30.2774 4 
6 -146.698 4 
7 86.732 4 
8 -29.6887 4 
9 -149.172 4 
10 -159.07 4 
11 84.509 4 
12 -34.9747 4 
13 -154.735 3 
14 70.0237 4 
15 -42.7993 4 
16 -174.113 4 
17 73.0641 4 
18 -38.872 4 
19 -49.5004 4 
20 -162.323 4 
21 85.7405 4 
22 27.3747 4 
23 -98.9111 4 
24 148.225 4 
25 21.9394 4 
26 -89.9525 4 
27 143.762 4 
28 -14.1455 4 
29 115.357 4 
30 -174.061 1 
31 68.2882 4 
32 -51.7416 4 
33 55.4623 1 
34 -67.5706 4 
35 177.495 4 
36 90.1906 1 
37 -24.563 4 
38 -143.65 4 
39 -171.738 1 
40 -44.8947 4 
41 78.4467 4 
42 158.009 1 
43 -82.1863 4 
44 31.3275 4 
45 135.86 1 
46 -103.921 4 
47 10.8123 4 
48 -167.881 2 
49 78.242 4 
50 -45.6533 4 
51 -160.87 4 
52 75.235 4 
53 -46.9928 4 
54 -48.9099 4 
55 -172.805 4 
56 64.9671 4 
57 79.1536 3 
58 80.988 4 
59 -35.2098 4 
60 -162.159 4 
61 -161.091 4 
62 82.7112 4 
63 -44.2379 4 
64 -37.6995 4 
65 -153.897 4 
66 -95.0756 1 
67 145.768 4 
68 26.1567 4 
69 -174.449 1 
70 -59.1719 4 
71 63.407 4 
72 118.761 3 
73 0.148034 4 
74 -113.223 4 
75 115.033 4 
76 1.66272 4 
77 -126.353 4 
78 -118.576 4 
79 128.053 4 
80 0.0368615 4 
81 -154.154 1 
82 81.1283 4 
83 -34.6649 4 
84 -93.0889 1 
85 25.8387 4 
86 143.457 4 
87 -146.881 1 
88 -30.4674 4 
89 92.9511 4 
90 -177.972 1 
91 66.9246 4 
92 -56.292 4 
93 176.835 1 
94 -64.6124 4 
95 53.5941 4 
96 -138.829 3 
97 103.852 4 
98 -17.9491 4 
99 -142.314 4 
100 95.8844 4 
101 -24.9954 4 
102 -22.2505 4 
103 -144.052 4 
104 95.0685 4 
105 -103.836 1 
106 145.124 4 
107 26.4139 4 
108 -155.053 2 
109 89.5215 4 
110 -39.3737 4 
111 -158.134 4 
112 72.9711 4 
113 -42.7079 4 
114 -38.9523 4 
115 -167.848 4 
116 76.4735 4 
ITEM: TIMESTEP
25400
ITEM: NUMBER OF ENTRIES
116
ITEM: BOX BOUNDS pp pp pp
-2.1616153369672940e+01 2.1616153369672940e+01
-1.1173239517074817e+01 1.1173239517074817e+01
-1.1173239517074817e+01 1.1173239517074817e+01
ITEM: ENTRIES index c_dphi c_prop
1 -87.4568 1 
2 156.692 4 
3 38.5135 4 
4 95.0625 3 
5 -31.2366 4 
6 -148.055 4 
7 86.3325 4 
8 -30.4857 4 
9 -147.368 4 
10 -151.433 4 
11 91.7486 4 
12 -25.1341 4 
13 -144.365 3 
14 86.9498 4 
15 -28.0742 4 
16 -162.843 4 
17 82.1329 4 
18 -34.1583 4 
19 -46.2617 4 
20 -161.286 4 
21 82.4231 4 
22 31.383 4 
23 -73.0367 4 
24 145.6 4 
25 41.1806 4 
26 -93.3966 4 
27 162.184 4 
28 -0.944626 4 
29 109.591 4 
30 -176.825 1 
31 66.8108 4 
32 -44.786 4 
33 29.0086 1 
34 -90.8718 4 
35 150.048 4 
36 66.145 1 
37 -55.1408 4 
38 -175.68 4 
39 -164.447 1 
40 -44.0839 4 
41 75.3651 4 
42 164.815 1 
43 -83.214 4 
44 46.6169 4 
45 132.693 1 
46 -107.261 4 
47 15.8201 4 
48 164.994 2 
49 41.8581 4 
50 -75.5516 4 
51 169.098 4 
52 51.6879 4 
53 -67.7661 4 
54 -79.2603 4 
55 163.33 4 
56 43.8761 4 
57 86.8654 3 
58 86.452 4 
59 -31.584 4 
60 -153.991 4 
61 -154.863 4 
62 87.1013 4 
63 -35.3061 4 
64 -32.6912 4 
65 -150.727 4 
66 -71.9544 1 
67 164.118 4 
68 52.5091 4 
69 -167.024 1 
70 -45.9825 4 
71 70.3194 4 
72 112.465 3 
73 -3.7628 4 
74 -123.22 4 
75 123.389 4 
76 3.9319 4 
77 -120.383 4 
78 -116.877 4 
79 123.666 4 
80 -0.649537 4 
81 -171.63 1 
82 63.1564 4 
83 -57.8165 4 
84 -82.6927 1 
85 37.1116 4 
86 152.96 4 
87 176.241 1 
88 -61.0406 4 
89 61.4175 4 
90 172.343 1 
91 52.118 4 
92 -62.4176 4 
93 -162.767 1 
94 -42.2936 4 
95 80.2226 4 
96 -139.915 3 
97 101.454 4 
98 -21.0876 4 
99 -133.657 4 
100 103.802 4 
101 -15.026 4 
102 -19.5989 4 
103 -142.141 4 
104 99.0316 4 
105 -105.603 1 
106 130.448 4 
107 12.635 4 
108 -175.992 2 
109 59.7613 4 
110 -58.3812 4 
111 -172.245 4 
112 69.6128 4 
113 -47.9978 4 
114 -53.8551 4 
115 -171.998 4 
116 70.3918 4 
ITEM: TIMESTEP
25450
ITEM: NUMBER OF ENTRIES
116
ITEM: BOX BOUNDS pp pp pp
-2.1616153369672940e+01 2.1616153369672940e+01
-1.1173239517074817e+01 1.1173239517074817e+01
-1.1173239517074817e+01 1.1173239517074817e+01
ITEM: ENTRIES index c_dphi c_prop
1 -99.9204 1 
2 144.913 4 
3 24.9703 4 
4 88.8963 3 
5 -25.6826 4 
6 -152.779 4 
7 88.7165 4 
8 -38.3802 4 
9 -156.705 4 
10 -151.14 4 
11 81.7629 4 
12 -36.5616 4 
13 -121.971 3 
14 118.403 4 
15 -5.79203 4 
16 -130.892 4 
17 104.912 4 
18 -11.267 4 
19 -14.0917 4 
20 -138.287 4 
21 105.534 4 
22 33.4855 4 
23 -99.4047 4 
24 158.678 4 
25 25.7881 4 
26 -85.3011 4 
27 141.809 4 
28 5.20373 4 
29 139.223 4 
30 -164.181 1 
31 81.0967 4 
32 -36.9441 4 
33 22.6582 1 
34 -100.449 4 
35 145.427 4 
36 75.8745 1 
37 -37.3256 4 
38 -155.15 4 
39 -154.819 1 
40 -38.317 4 
41 86.885 4 
42 163.301 1 
43 -72.0493 4 
44 44.6376 4 
45 132.778 1 
46 -111.383 4 
47 8.77048 4 
48 172.481 2 
49 53.2799 4 
50 -61.0189 4 
51 177.473 4 
52 63.1746 4 
53 -63.3253 4 
54 -68.1289 4 
55 177.572 4 
56 51.0724 4 
57 91.3936 3 
58 91.7875 4 
59 -25.9306 4 
60 -149.055 4 
61 -149.041 4 
62 93.2404 4 
63 -29.8838 4 
64 -27.764 4 
65 -145.482 4 
66 -89.9291 1 
67 149.82 4 
68 30.4458 4 
69 -173.938 1 
70 -48.6347 4 
71 73.2087 4 
72 96.8902 3 
73 -26.7823 4 
74 -148.727 4 
75 101.437 4 
76 -20.507 4 
77 -134.89 4 
78 -145.07 4 
79 92.9856 4 
80 -21.3977 4 
81 165.355 1 
82 42.5583 4 
83 -77.0738 4 
84 -96.4547 1 
85 19.9576 4 
86 140.57 4 
87 -171.011 1 
88 -47.9118 4 
89 71.7512 4 
90 167.296 1 
91 53.6918 4 
92 -68.5371 4 
93 -147.734 1 
94 -30.2749 4 
95 88.0784 4 
96 -129.175 3 
97 111.828 4 
98 -4.0031 4 
99 -130.415 4 
100 113.753 4 
101 -11.4192 4 
102 -8.56906 4 
103 -124.4 4 
104 110.427 4 
105 -104.236 1 
106 133.319 4 
107 15.4759 4 
108 166.666 2 
109 36.0645 4 
110 -75.7486 4 
111 153.572 4 
112 41.7587 4 
113 -75.8272 4 
114 -83.5973 4 
115 164.59 4 
116 47.0037 4 
ITEM: TIMESTEP
25500
ITEM: NUMBER OF ENTRIES
116
ITEM: BOX BOUNDS pp pp pp
-2.1616153369672940e+01 2.1616153369672940e+01
-1.1173239517074817e+01 1.1173239517074817e+01
-1.1173239517074817e+01 1.1173239517074817e+01
ITEM: ENTRIES index c_dphi c_prop
1 -97.1148 1 
2 144.812 4 
3 31.1816 4 
4 75.1362 3 
5 -51.3753 4 
6 -160.109 4 
7 79.0892 4 
8 -29.6449 4 
9 -154.399 4 
10 -171.389 4 
11 79.8772 4 
12 -44.8772 4 
13 -129.404 3 
14 106.685 4 
15 -11.4273 4 
16 -124.313 4 
17 117.575 4 
18 -0.402196 4 
19 -5.01865 4 
20 -123.131 4 
21 118.892 4 
22 52.3577 4 
23 -60.437 4 
24 169.783 4 
25 56.988 4 
26 -71.3601 4 
27 175.845 4 
28 16.4074 4 
29 129.617 4 
30 179.316 1 
31 53.5774 4 
32 -65.2941 4 
33 34.5403 1 
34 -86.9334 4 
35 151.433 4 
36 98.7435 1 
37 -31.7361 4 
38 -143.606 4 
39 -163.766 1 
40 -36.4301 4 
41 73.533 4 
42 169.392 1 
43 -74.5796 4 
44 43.2147 4 
45 151.283 1 
46 -89.1679 4 
47 28.7274 4 
48 177.115 2 
49 61.1117 4 
50 -60.5738 4 
51 177.542 4 
52 55.8563 4 
53 -66.4544 4 
54 -63.2096 4 
55 175.105 4 
56 52.7941 4 
57 90.7618 3 
58 92.8469 4 
59 -22.9575 4 
60 -149.764 4 
61 -145.37 4 
62 98.8252 4 
63 -27.9812 4 
64 -26.6274 4 
65 -142.432 4 
66 -92.951 1 
67 149.117 4 
68 25.6592 4 
69 -177.761 1 
70 -62.6043 4 
71 49.0646 4 
72 104.933 3 
73 -7.9398 4 
74 -121.876 4 
75 113.513 4 
76 -0.423134 4 
77 -133.615 4 
78 -136.733 4 
79 109.331 4 
80 -23.8608 4 
81 162.186 1 
82 46.3904 4 
83 -70.8808 4 
84 -92.9285 1 
85 31.9817 4 
86 146.681 4 
87 -175.724 1 
88 -54.1908 4 
89 66.4243 4 
90 176.188 1 
91 58.4746 4 
92 -61.2618 4 
93 -159.744 1 
94 -40.9079 4 
95 76.2891 4 
96 -114.476 3 
97 127.677 4 
98 7.23671 4 
99 -112.387 4 
100 127.173 4 
101 5.45991 4 
102 9.28722 4 
103 -111.153 4 
104 127.134 4 
105 -122.2 1 
106 117.615 4 
107 11.1513 4 
108 176.892 2 
109 59.2031 4 
110 -56.9962 4 
111 176.169 4 
112 59.9699 4 
113 -66.1423 4 
114 -74.3139 4 
115 169.487 4 
116 43.3747 4 
ITEM: TIMESTEP
25550
ITEM: NUMBER OF ENTRIES
116
ITEM: BOX BOUNDS pp pp pp
-2.1616153369672940e+01 2.1616153369672940e+01
-1.1173239517074817e+01 1.1173239517074817e+01
-1.1173239517074817e+01 1.1173239517074817e+01
ITEM: ENTRIES index c_dphi c_prop
1 -83.8421 1 
2 153.346 4 
3 27.6679 4 
4 70.8325 3 
5 -48.002 4 
6 -169.865 4 
7 72.899 4 
8 -48.9642 4 
9 -168.267 4 
10 -162.09 4 
11 76.047 4 
12 -43.2554 4 
13 -145.184 3 
14 102.67 4 
15 -26.2326 4 
16 -129.11 4 
17 101.987 4 
18 -16.9636 4 
19 -10.6797 4 
20 -139.582 4 
21 101.467 4 
22 44.9662 4 
23 -77.5249 4 
24 175.262 4 
25 52.7709 4 
26 -70.1403 4 
27 167.369 4 
28 8.42294 4 
29 132.687 4 
30 172.798 1 
31 49.9905 4 
32 -75.5914 4 
33 65.4369 1 
34 -62.7989 4 
35 -175.529 4 
36 91.6969 1 
37 -26.2412 4 
38 -152.099 4 
39 177.287 1 
40 -64.6586 4 
41 60.728 4 
42 157.456 1 
43 -84.0525 4 
44 37.9923 4 
45 141.239 1 
46 -94.1621 4 
47 25.6195 4 
48 162.484 2 
49 39.4551 4 
50 -78.6601 4 
51 174.268 4 
52 56.1528 4 
53 -62.7034 4 
54 -75.97 4 
55 165.915 4 
56 47.0587 4 
57 97.8202 3 
58 100.43 4 
59 -27.0386 4 
60 -141.398 4 
61 -142.088 4 
62 90.4438 4 
63 -23.9152 4 
64 -20.3527 4 
65 -147.821 4 
66 -90.6475 1 
67 149.618 4 
68 34.1907 4 
69 178.936 1 
70 -55.2539 4 
71 66.7174 4 
72 138.192 3 
73 15.4468 4 
74 -107.661 4 
75 130.641 4 
76 7.53342 4 
77 -106.614 4 
78 -102.185 4 
79 134.707 4 
80 20.5604 4 
81 -177.361 1 
82 71.5597 4 
83 -57.017 4 
84 -104.068 1 
85 18.6887 4 
86 140.842 4 
87 -168.099 1 
88 -49.0796 4 
89 77.1283 4 
90 -168.103 1 
91 65.7624 4 
92 -49.5016 4 
93 -167.54 1 
94 -50.7113 4 
95 73.0812 4 
96 -112.868 3 
97 130.103 4 
98 4.26209 4 
99 -104.507 4 
100 129.652 4 
101 12.5215 4 
102 13.084 4 
103 -112.757 4 
104 130.112 4 
105 -137.959 1 
106 96.2933 4 
107 -24.9389 4 
108 -178.61 2 
109 49.0855 4 
110 -63.4253 4 
111 176.518 4 
112 64.0073 4 
113 -51.1778 4 
114 -61.0396 4 
115 -173.55 4 
116 71.2645 4 
ITEM: TIMESTEP
25600
ITEM: NUMBER OF ENTRIES
116
ITEM: BOX BOUNDS pp pp pp
-2.1616153369672940e+01 2.1616153369672940e+01
-1.1173239517074817e+01 1.1173239517074817e+01
-1.1173239517074817e+01 1.1173239517074817e+01
ITEM: ENTRIES index c_dphi c_prop
1 -100.455 1 
2 137.975 4 
3 14.2793 4 
4 75.244 3 
5 -58.6516 4 
6 -170.596 4 
7 64.4672 4 
8 -47.4776 4 
9 -161.637 4 
10 172.861 4 
11 60.9158 4 
12 -53.2438 4 
13 -141.702 3 
14 109.328 4 
15 -9.90272 4 
16 -114.285 4 
17 126.485 4 
18 -5.3146 4 
19 -6.45266 4 
20 -125.683 4 
21 102.517 4 
22 55.3085 4 
23 -66.4394 4 
24 179.041 4 
25 57.2929 4 
26 -69.8105 4 
27 168.442 4 
28 7.58798 4 
29 131.954 4 
30 172.096 1 
31 34.8736 4 
32 -69.2958 4 
33 61.7796 1 
34 -65.1734 4 
35 174.811 4 
36 60.0668 1 
37 -58.9234 4 
38 -171.825 4 
39 156.031 1 
40 -88.3977 4 
41 24.1049 4 
42 178.724 1 
43 -58.5444 4 
44 55.0963 4 
45 134.574 1 
46 -109.872 4 
47 11.5142 4 
48 162.165 2 
49 48.6362 4 
50 -73.5725 4 
51 171.999 4 
52 49.7903 4 
53 -74.4718 4 
54 -68.057 4 
55 169.734 4 
56 45.4722 4 
57 130.32 3 
58 126.24 4 
59 17.8564 4 
60 -109.087 4 
61 -111.381 4 
62 140.236 4 
63 13.2924 4 
64 5.64601 4 
65 -102.737 4 
66 -86.2054 1 
67 153.418 4 
68 31.7333 4 
69 161.354 1 
70 -76.7434 4 
71 43.0767 4 
72 166.686 3 
73 42.9888 4 
74 -70.6074 4 
75 157.707 4 
76 44.1106 4 
77 -78.5964 4 
78 -87.459 4 
79 158.945 4 
80 36.2379 4 
81 -153.537 1 
82 88.7165 4 
83 -23.5217 4 
84 -110.92 1 
85 19.0635 4 
86 138.47 4 
87 -178.691 1 
88 -58.5931 4 
89 62.1316 4 
90 -171.58 1 
91 67.7632 4 
92 -52.5807 4 
93 -179.984 1 
94 -55.3223 4 
95 61.3765 4 
96 -91.9257 3 
97 144.511 4 
98 24.786 4 
99 -96.3724 4 
100 143.903 4 
101 27.1914 4 
102 24.6473 4 
103 -95.0772 4 
104 148.211 4 
105 -158.34 1 
106 89.344 4 
107 -25.7132 4 
108 -161.935 2 
109 79.4975 4 
110 -31.6379 4 
111 -172.507 4 
112 76.3573 4 
113 -53.9401 4 
114 -47.1371 4 
115 -158.272 4 
116 71.4302 4 
ITEM: TIMESTEP
25650
ITEM: NUMBER OF ENTRIES
116
ITEM: BOX BOUNDS pp pp pp
-2.1616153369672940e+01 2.1616153369672940e+01
-1.1173239517074817e+01 1.1173239517074817e+01
-1.1173239517074817e+01 1.1173239517074817e+01
ITEM: ENTRIES index c_dphi c_prop
1 -89.9591 1 
2 145.128 4 
3 29.7765 4 
4 48.3206 3 
5 -81.4449 4 
6 164.901 4 
7 41.8176 4 
8 -71.8367 4 
9 171.583 4 
10 164.088 4 
11 50.4336 4 
12 -66.1465 4 
13 -131.721 3 
14 112.32 4 
15 -11.8891 4 
16 -126.119 4 
17 109.673 4 
18 -10.1591 4 
19 -1.48165 4 
20 -125.69 4 
21 114.478 4 
22 44.1424 4 
23 -83.9958 4 
24 157.026 4 
25 28.8879 4 
26 -75.605 4 
27 156.257 4 
28 13.709 4 
29 131.124 4 
30 -178.681 1 
31 61.4935 4 
32 -70.7968 4 
33 46.0984 1 
34 -79.7946 4 
35 162.861 4 
36 80.9885 1 
37 -41.4113 4 
38 -159.479 4 
39 159.144 1 
40 -84.1581 4 
41 35.623 4 
42 173.44 1 
43 -70.7323 4 
44 54.2511 4 
45 137.333 1 
46 -102.581 4 
47 20.3944 4 
48 178.397 2 
49 56.8328 4 
50 -57.6369 4 
51 179.031 4 
52 64.5617 4 
53 -59.4043 4 
54 -54.9399 4 
55 -169.41 4 
56 66.6243 4 
57 137.222 3 
58 138.765 4 
59 23.8556 4 
60 -100.561 4 
61 -107.664 4 
62 137.426 4 
63 13.0097 4 
64 16.5474 4 
65 -98.3623 4 
66 -89.0508 1 
67 147.063 4 
68 37.0359 4 
69 158.443 1 
70 -85.9908 4 
71 37.0065 4 
72 164.471 3 
73 45.3016 4 
74 -69.8406 4 
75 155.028 4 
76 39.8862 4 
77 -85.8025 4 
78 -77.6076 4 
79 167.25 4 
80 41.5614 4 
81 -170.263 1 
82 66.1055 4 
83 -44.8478 4 
84 -108.786 1 
85 14.4147 4 
86 128.477 4 
87 179.566 1 
88 -62.3145 4 
89 54.8511 4 
90 179.717 1 
91 59.5505 4 
92 -60.188 4 
93 -171.277 1 
94 -53.3836 4 
95 66.8948 4 
96 -76.8559 3 
97 161.286 4 
98 44.0408 4 
99 -77.2168 4 
100 165.538 4 
101 44.6416 4 
102 40.0209 4 
103 -77.224 4 
104 161.879 4 
105 -167.844 1 
106 72.853 4 
107 -39.4516 4 
108 -168.125 2 
109 69.7134 4 
110 -49.4482 4 
111 -169.167 4 
112 71.6713 4 
113 -47.0052 4 
114 -54.3492 4 
115 -173.511 4 
116 67.8126 4 
ITEM: TIMESTEP
25700
ITEM: NUMBER OF ENTRIES
116
ITEM: BOX BOUNDS pp pp pp
-2.1616153369672940e+01 2.1616153369672940e+01
-1.1173239517074817e+01 1.1173239517074817e+01
-1.1173239517074817e+01 1.1173239517074817e+01
ITEM: ENTRIES index c_dphi c_prop
1 -85.0086 1 
2 163.018 4 
3 31.0867 4 
4 59.8842 3 
5 -66.484 4 
6 170.512 4 
7 62.1371 4 
8 -60.8671 4 
9 -171.495 4 
10 179.197 4 
11 56.1932 4 
12 -54.4344 4 
13 -93.6592 3 
14 149.681 4 
15 26.6664 4 
16 -83.8897 4 
17 153.095 4 
18 32.7698 4 
19 29.4675 4 
20 -93.5474 4 
21 146.127 4 
22 46.5706 4 
23 -66.4023 4 
24 163.108 4 
25 50.1349 4 
26 -81.921 4 
27 165.106 4 
28 -10.9896 4 
29 109.225 4 
30 161.101 1 
31 34.1026 4 
32 -75.9083 4 
33 66.3813 1 
34 -58.4502 4 
35 -178.775 4 
36 90.9148 1 
37 -31.921 4 
38 -150.045 4 
39 175.46 1 
40 -63.603 4 
41 54.9434 4 
42 177.829 1 
43 -65.2618 4 
44 56.1851 4 
45 158.649 1 
46 -78.1332 4 
47 39.8441 4 
48 -172.242 2 
49 70.4241 4 
50 -57.2999 4 
51 -163.696 4 
52 68.5803 4 
53 -46.3616 4 
54 -41.8851 4 
55 -169.609 4 
56 75.449 4 
57 115.373 3 
58 116.094 4 
59 -5.81486 4 
60 -125.805 4 
61 -123.503 4 
62 114.588 4 
63 -5.40247 4 
64 -2.72729 4 
65 -124.637 4 
66 -104.501 1 
67 135.264 4 
68 16.3211 4 
69 164.257 1 
70 -74.8686 4 
71 52.4144 4 
72 143.085 3 
73 19.1308 4 
74 -102.08 4 
75 139.27 4 
76 18.0594 4 
77 -96.7754 4 
78 -87.7206 4 
79 151.069 4 
80 36.234 4 
81 171.368 1 
82 53.3751 4 
83 -73.2144 4 
84 -97.5019 1 
85 19.4316 4 
86 144.285 4 
87 -160.176 1 
88 -36.9715 4 
89 82.8352 4 
90 -175.811 1 
91 64.0701 4 
92 -60.2684 4 
93 -144.624 1 
94 -20.1509 4 
95 97.902 4 
96 -83.8325 3 
97 154.122 4 
98 30.8482 4 
99 -89.3463 4 
100 147.379 4 
101 32.6987 4 
102 27.736 4 
103 -95.5384 4 
104 149.781 4 
105 -165.626 1 
106 68.8366 4 
107 -55.782 4 
108 171.635 2 
109 47.5431 4 
110 -69.896 4 
111 176.966 4 
112 59.5273 4 
113 -58.9419 4 
114 -60.4394 4 
115 -177.878 4 
116 63.6523 4 
ITEM: TIMESTEP
25750
ITEM: NUMBER OF ENTRIES
116
ITEM: BOX BOUNDS pp pp pp
-2.1616153369672940e+01 2.1616153369672940e+01
-1.1173239517074817e+01 1.1173239517074817e+01
-1.1173239517074817e+01 1.1173239517074817e+01
ITEM: ENTRIES index c_dphi c_prop
1 -94.2426 1 
2 147.084 4 
3 35.1573 4 
4 55.8134 3 
5 -64.7969 4 
6 -179.019 4 
7 59.1318 4 
8 -55.09 4 
9 179.742 4 
10 179.83 4 
11 65.6085 4 
12 -59.5595 4 
13 -85.6664 3 
14 151.606 4 
15 23.3054 4 
16 -94.5757 4 
17 137.123 4 
18 28.1515 4 
19 29.7267 4 
20 -98.5743 4 
21 152.454 4 
22 32.9658 4 
23 -87.1299 4 
24 152.335 4 
25 32.2396 4 
26 -94.1043 4 
27 145.8 4 
28 -24.4187 4 
29 88.9007 4 
30 -169.268 1 
31 75.1389 4 
32 -48.6838 4 
33 119.536 1 
34 0.332716 4 
35 -128.743 4 
36 102.319 1 
37 -18.7972 4 
38 -134.918 4 
39 -172.539 1 
40 -51.1538 4 
41 72.1021 4 
42 178.242 1 
43 -58.1031 4 
44 57.1789 4 
45 160.969 1 
46 -85.1469 4 
47 38.0388 4 
48 173.141 2 
49 55.3528 4 
50 -60.9288 4 
51 176.528 4 
52 60.2465 4 
53 -65.6842 4 
54 -59.1737 4 
55 -175.455 4 
56 58.6141 4 
57 110.069 3 
58 105.258 4 
59 -9.37262 4 
60 -131.398 4 