ITEM: TIMESTEP
16000
ITEM: NUMBER OF ATOMS
2063
ITEM: BOX BOUNDS pp pp pp
-2.2399916446225905e+01 2.2399916446225905e+01
-1.1128071838990754e+01 1.1128071838990754e+01
-1.1128071838990754e+01 1.1128071838990754e+01
ITEM: ATOMS id type xs ys zs
315 8 0.0673383 0.124907 0.253106
313 7 0.0833034 0.13346 0.219927
137 8 0.00474692 0.273468 0.131557
1849 7 0.0430302 0.170508 0.12618
1850 8 0.0546424 0.151762 0.161252
1851 8 0.0579471 0.186824 0.0936836
1873 7 0.0438098 0.0919726 0.301401
1087 7 0.124516 0.077288 0.0505136
1089 8 0.137527 0.0507683 0.0782662
2083 7 0.0763928 0.214165 0.0326857
1018 7 0.137322 0.187229 0.255802
2085 8 0.0829234 0.255901 0.0192948
546 8 0.0941133 0.0489811 0.207544
114 8 0.00654752 0.130013 0.15836
544 7 0.0941221 0.00687496 0.187234
1412 8 0.0432267 0.031396 0.0533669
1411 7 0.0475268 0.0158673 0.0111884
1291 7 0.984471 0.262365 0.184117
1293 8 0.977049 0.21882 0.187116
1292 8 0.983581 0.283392 0.225433
1676 8 0.0889196 0.260016 0.345316
1020 8 0.14882 0.153942 0.276917
1088 8 0.108452 0.0959306 0.075895
1675 7 0.09888 0.273318 0.30552
136 7 0.0150771 0.280438 0.0889578
138 8 0.0275127 0.241804 0.0853863
1874 8 0.0555249 0.0526496 0.294761
268 7 0.155573 0.0257564 0.139453
545 8 0.113311 -0.00220273 0.162415
314 8 0.0992665 0.160567 0.240109
1875 8 0.0296968 0.088658 0.337098
1019 8 0.150055 0.215126 0.229382
779 8 0.229388 0.227992 0.158264
521 8 0.197748 0.109856 0.326123
522 8 0.177934 0.048171 0.331703
520 7 0.176445 0.0932955 0.320303
334 7 0.257249 0.092854 0.162775
336 8 0.234961 0.0920368 0.176396
335 8 0.262808 0.0487224 0.15281
2036 8 0.194609 0.0923318 0.240774
1697 8 0.246101 0.167462 0.301066
2092 7 0.273859 0.181691 0.249014
2094 8 0.26771 0.161717 0.209466
2035 7 0.195668 0.107373 0.197073
2037 8 0.200004 0.152866 0.200514
1068 8 0.27032 0.0861582 0.314301
1911 8 0.147631 0.315128 0.118244
778 7 0.21435 0.222325 0.1923
2057 8 0.25675 0.320919 0.306503
780 8 0.208632 0.262492 0.211673
252 8 0.168281 0.117036 0.0156816
250 7 0.190236 0.114894 0.0039294
1066 7 0.282488 0.0502445 0.298345
1910 8 0.170404 0.288865 0.069599
1909 7 0.147944 0.293128 0.0779767
321 8 0.208163 0.305068 0.321412
270 8 0.166006 0.057741 0.165455
269 8 0.163769 0.984976 0.155586
694 7 0.25959 0.970793 0.1775
1067 8 0.280518 0.0383112 0.254155
2056 7 0.277006 0.303008 0.318768
2058 8 0.278513 0.258965 0.303946
1677 8 0.11048 0.23915 0.28468
1696 7 0.234392 0.14223 0.332088
1984 7 0.255771 0.220485 0.097257
1985 8 0.278612 0.225279 0.0920899
1986 8 0.254496 0.175904 0.106983
1747 7 0.211564 0.280688 0.0376174
1749 8 0.229152 0.254788 0.0546236
669 8 0.321463 0.171139 0.0591402
502 7 0.316271 0.23537 0.0901935
668 8 0.335501 0.10321 0.0719188
667 7 0.320376 0.126566 0.0461165
2093 8 0.297164 0.183326 0.244914
2065 7 0.401345 0.0166086 0.130496
2067 8 0.392871 0.0202922 0.0885223
1549 7 0.332779 0.177191 0.240169
1551 8 0.344252 0.175263 0.201049
1550 8 0.34868 0.182841 0.273797
1732 7 0.391517 0.0475861 0.285424
856 7 0.365674 0.167768 0.127661
858 8 0.368173 0.211285 0.113599
504 8 0.335106 0.243211 0.0636883
1300 7 0.390185 0.260222 0.250016
1302 8 0.41226 0.253813 0.238118
857 8 0.386368 0.149075 0.126104
674 8 0.362966 0.295666 0.195194
664 7 0.373858 0.25601 0.0386447
665 8 0.39173 0.279664 0.0569771
2066 8 0.384845 0.022285 0.162499
673 7 0.35291 0.319384 0.161584
1301 8 0.384635 0.231502 0.283896
1908 8 0.324266 0.0505108 0.244708
1906 7 0.342421 0.0562119 0.216185
1907 8 0.344719 0.102646 0.218069
1511 8 0.3852 0.119625 0.326964
1734 8 0.372888 0.0312392 0.264521
1227 8 0.431249 0.233066 0.112276
503 8 0.318803 0.25628 0.129857
1733 8 0.400861 0.00779401 0.298744
1510 7 0.378341 0.163737 0.329288
998 8 0.282842 0.103569 0.0260541
713 8 0.428228 0.102937 0.254481
86 8 0.45619 0.0869451 0.984471
536 8 0.491212 0.144865 0.0568616
535 7 0.483556 0.102908 0.065044
1832 8 0.575037 0.103369 0.139072
1831 7 0.56809 0.0597156 0.128498
977 8 0.490824 0.257815 0.103339
1225 7 0.432735 0.1865 0.111406
976 7 0.495029 0.226887 0.0697804
978 8 0.516237 0.208149 0.071294
537 8 0.500753 0.0704748 0.0633117
1226 8 0.454911 0.174005 0.107484
712 7 0.437692 0.126066 0.218528
714 8 0.436503 0.104839 0.178438
1007 8 0.508056 0.084079 0.223549
1006 7 0.526224 0.111877 0.224039
1008 8 0.537466 0.118913 0.185312
353 8 0.519399 0.15405 0.303945
352 7 0.525015 0.18689 0.334182
1053 8 0.558898 0.286686 0.242579
110 8 0.5055 0.321789 0.171076
109 7 0.484844 0.317683 0.151241
111 8 0.468431 0.295197 0.176066
1401 8 0.436063 0.353756 0.10217
551 8 0.475094 0.0420602 0.12368
552 8 0.440515 0.0212657 0.135251
774 8 0.449854 0.19704 0.225291
1688 8 0.577899 0.199643 0.190033
1051 7 0.570686 0.254671 0.266456
1052 8 0.555432 0.234295 0.294908
1902 8 0.559391 0.181162 0.0909765
1133 8 0.538025 0.0253107 0.0981471
550 7 0.461989 0.013178 0.147687
772 7 0.460135 0.237876 0.233631
773 8 0.478205 0.234546 0.26121
419 8 0.497896 0.207997 0.991203
283 7 0.464445 0.349351 0.985344
1900 7 0.54704 0.177006 0.0522227
1132 7 0.520398 0.00510642 0.0762259
1833 8 0.582226 0.040694 0.0966168
1687 7 0.580185 0.179786 0.148369
1109 8 0.604369 0.243255 0.307105
1262 8 0.663009 0.0821672 0.16906
1261 7 0.64989 0.0992666 0.204115
1263 8 0.646737 0.0624161 0.232114
923 8 0.622894 0.231977 0.0699713
1159 7 0.640594 0.211715 0.148002
1161 8 0.642069 0.251741 0.173142
798 8 0.667651 0.141266 0.26238
1160 8 0.644499 0.175069 0.174013
273 8 0.69761 0.375022 0.280823
796 7 0.680078 0.158739 0.297059
797 8 0.667186 0.194892 0.308995
1429 7 0.651566 0.321861 0.197777
1430 8 0.6553 0.34089 0.239084
1689 8 0.603219 0.182204 0.143265
1491 8 0.674923 0.201069 0.114467
1431 8 0.665772 0.341343 0.166913
2072 8 0.606009 0.147575 0.346041
1164 8 0.705788 0.0956499 0.31352
1490 8 0.698728 0.139935 0.107317
1489 7 0.695746 0.185161 0.104307
386 8 0.694979 0.047379 0.0766292
387 8 0.716691 0.0316547 0.136806
385 7 0.701745 0.0615213 0.119328
1786 7 0.592476 0.00578759 0.0268031
922 7 0.613507 0.248902 0.0312183
1901 8 0.543221 0.135429 0.0340841
924 8 0.619291 0.292679 0.0227059
1916 8 0.729565 0.250873 0.227903
2047 7 0.726953 0.292011 0.304339
2049 8 0.744527 0.31989 0.310591
1917 8 0.724646 0.216682 0.155837
2048 8 0.721934 0.266714 0.341859
1162 7 0.719051 0.0584257 0.320939
1163 8 0.740603 0.064088 0.306614
1736 8 0.759151 0.0385819 0.201077
1735 7 0.759928 0.00598516 0.168611
1915 7 0.737646 0.226782 0.191829
1397 8 0.75142 0.142516 0.210777
1396 7 0.762605 0.108049 0.231507
803 8 0.797205 0.292921 0.263222
1398 8 0.785122 0.11254 0.224681
275 8 0.771652 0.223685 0.109147
1883 8 0.82138 0.184666 0.232808
2042 8 0.727645 0.372456 0.143209
1884 8 0.852089 0.15774 0.192203
1882 7 0.836248 0.150162 0.224903
2062 7 0.787537 0.0801784 0.0905617
276 8 0.804659 0.215003 0.137088
1737 8 0.766426 0.0291077 0.130145
2063 8 0.789341 0.124788 0.104641
802 7 0.805998 0.259467 0.235669
804 8 0.828457 0.266297 0.238199
2043 8 0.747897 0.337704 0.199624
274 7 0.786906 0.192025 0.119873
1583 8 0.837566 0.123415 0.392964
1584 8 0.813403 0.177258 0.376456
452 8 0.844164 0.0995849 0.288244
2064 8 0.808629 0.0603023 0.089587
1927 7 0.840217 0.0203878 0.0682454
19 7 0.782989 0.345356 0.316545
1631 8 0.789776 0.146619 0.00749768
497 8 0.698836 0.247273 0.0489252
496 7 0.705286 0.264035 0.00835911
498 8 0.722009 0.294879 0.0136503
1869 8 0.84983 0.104206 0.0480912
113 8 0.988443 0.0996178 0.213475
112 7 0.985181 0.122167 0.173659
330 8 0.961931 0.0324684 0.268583
1868 8 0.867302 0.164328 0.0578627
329 8 0.987894 0.0619012 0.315167
328 7 0.975895 0.0697196 0.276834
201 8 0.974652 0.246279 0.0783854
1825 7 0.927837 0.159227 0.176423
1826 8 0.949616 0.142812 0.176188
100 7 0.867122 0.283341 0.218166
1827 8 0.919136 0.163752 0.219267
199 7 0.953524 0.231046 0.0715082
200 8 0.946608 0.232273 0.115531
101 8 0.882501 0.276388 0.251419
159 8 0.967175 0.127296 0.00968588
878 8 0.868515 0.240102 0.156359
877 7 0.873639 0.202711 0.130553
879 8 0.895376 0.187742 0.137977
10 7 0.922277 0.147869 0.296081
11 8 0.912027 0.132477 0.333952
12 8 0.940083 0.118577 0.295152
2006 8 0.920038 0.216782 0.292398
2005 7 0.914169 0.261965 0.294369
2007 8 0.900908 0.264979 0.332155
453 8 0.843375 0.0322382 0.318206
451 7 0.838958 0.0761861 0.327022
74 8 0.958783 0.0211636 0.107176
1038 8 0.968664 0.317522 0.337024
1036 7 0.968419 0.319714 0.290701
1037 8 0.949056 0.306005 0.270421
1867 7 0.853746 0.145008 0.0278465
157 7 0.973284 0.100213 0.0453396
158 8 0.975897 0.123296 0.0847977
1268 8 0.104181 0.394378 0.0244251
1267 7 0.103499 0.348698 0.0157543
1269 8 0.123036 0.33238 0.035055
1718 8 0.0443927 0.481031 0.18668
1717 7 0.0393818 0.439602 0.204052
1719 8 0.0456425 0.40599 0.174679
1893 8 0.0688744 0.664745 0.201278
177 8 0.0749725 0.651298 0.397803
1044 8 0.071424 0.605065 0.0938234
1042 7 0.0771011 0.594309 0.0505435
1043 8 0.0592537 0.596287 0.0216715
41 8 0.142643 0.520469 0.116193
1816 7 0.142418 0.444039 0.174822
1817 8 0.136682 0.400072 0.179584
1506 8 0.00312112 0.451874 0.13455
1309 7 0.0100043 0.47313 0.313261
1310 8 0.0204107 0.448841 0.278937
1818 8 0.146654 0.463039 0.218011
1764 8 0.0397566 0.445495 0.0264218
1505 8 0.986647 0.415466 0.0762841
1658 8 0.0152585 0.535522 0.258547
1891 7 0.0546477 0.644497 0.170344
1892 8 0.0411089 0.617088 0.195875
848 8 0.0769863 0.359234 0.0926825
847 7 0.0556093 0.371209 0.101708
615 8 0.107882 0.646978 0.00729246
1183 7 0.149802 0.670994 0.207557
1184 8 0.135295 0.652955 0.237612
849 8 0.0412652 0.336639 0.0930523
1659 8 0.00387947 0.600761 0.261598
1657 7 0.0161951 0.573476 0.234192
1311 8 0.990606 0.450673 0.319053
14 8 0.0963275 0.668829 0.285446
1156 7 0.119584 0.581674 0.284172
1158 8 0.121238 0.536489 0.285726
1157 8 0.104953 0.596038 0.317137
1863 8 0.0106725 0.596226 0.988446
589 7 0.161017 0.323467 0.221474
591 8 0.181971 0.321972 0.242193
590 8 0.144261 0.329787 0.251932
42 8 0.140892 0.532475 0.0415571
1196 8 0.154838 0.440688 0.317992
1195 7 0.156636 0.473199 0.28584
40 7 0.151266 0.544988 0.0810258
119 8 0.206505 0.493512 0.139641
120 8 0.184202 0.429261 0.148602
1714 7 0.221951 0.681068 0.303778
972 8 0.183638 0.555139 0.0919189
1113 8 0.227218 0.498436 0.344564
1112 8 0.215323 0.502508 0.274413
1111 7 0.220149 0.527785 0.311477
118 7 0.205731 0.447313 0.147925
184 7 0.278783 0.638101 0.0840309
186 8 0.261651 0.657204 0.0584663
319 7 0.212043 0.325854 0.280267
320 8 0.211369 0.370812 0.287756
573 8 0.234465 0.532561 0.0605652
971 8 0.211647 0.602103 0.111425
970 7 0.205635 0.557379 0.109819
571 7 0.247521 0.515266 0.0260448
572 8 0.238382 0.522075 0.983824
416 8 0.243135 0.334419 0.185318
417 8 0.232039 0.406272 0.16829
415 7 0.2484 0.378404 0.187795
1197 8 0.172037 0.502762 0.301104
737 8 0.220974 0.420686 0.0122603
1635 8 0.315006 0.549243 0.196155
1185 8 0.168064 0.645265 0.201966
1715 8 0.201825 0.662907 0.3176
1716 8 0.227364 0.667902 0.261019
185 8 0.288311 0.60835 0.0542147
81 8 0.258283 0.660972 0.343355
1407 8 0.374359 0.324801 0.291901
675 8 0.3411 0.350786 0.185493
952 7 0.333308 0.397289 0.00554318
1400 8 0.400134 0.339198 0.10979
1399 7 0.419552 0.322445 0.0932346
1093 7 0.315096 0.398412 0.32072
1094 8 0.303463 0.363566 0.339768
827 8 0.289311 0.515176 0.00940201
1405 7 0.373294 0.369866 0.300676
1774 7 0.417907 0.448284 0.216192
1095 8 0.308922 0.405907 0.276284
1776 8 0.40251 0.428548 0.242609
645 8 0.286206 0.404282 0.183852
1633 7 0.302815 0.530898 0.162968
1634 8 0.294983 0.564237 0.135407
643 7 0.308396 0.415524 0.184137
644 8 0.307564 0.461344 0.177684
816 8 0.377394 0.53146 0.252496
391 7 0.441908 0.576986 0.0629578
828 8 0.319623 0.48299 0.000623474
826 7 0.311528 0.525823 0.0028156
814 7 0.365139 0.567421 0.265127
815 8 0.36688 0.602196 0.236132
1628 8 0.414931 0.668755 0.19174
393 8 0.446353 0.621597 0.0683458
332 8 0.43096 0.505057 0.0914699
333 8 0.427127 0.457292 0.149291
331 7 0.431375 0.460322 0.103056
1148 8 0.415519 0.442793 -0.00196378
1629 8 0.439524 0.643059 0.239441
1627 7 0.436761 0.672435 0.205291
954 8 0.352639 0.421081 -0.00121943
953 8 0.337254 0.371086 0.0425566
1416 8 0.32464 0.607827 0.975762
1149 8 0.4062 0.478595 0.936466
1775 8 0.435983 0.460385 0.241651
392 8 0.449509 0.567958 0.0205351
1744 7 0.520125 0.632156 0.134197
1211 8 0.541159 0.373878 0.175732
1210 7 0.541182 0.342632 0.209561
1745 8 0.500922 0.646494 0.114323
1212 8 0.54945 0.366953 0.246216
1547 8 0.53462 0.5712 0.113306
1746 8 0.52486 0.662973 0.167347
1965 8 0.471209 0.478372 0.027415
229 7 0.551447 0.423055 0.118679
2122 3 0.444247 0.369641 0.32185
2121 3 0.471274 0.339887 0.268263
2120 2 0.468492 0.35967 0.314127
2119 3 0.502439 0.41773 0.276538
2118 3 0.494908 0.430544 0.35689
2117 2 0.484783 0.420247 0.312166
230 8 0.543518 0.389609 0.0908322
1528 7 0.564856 0.428873 0.287052
1530 8 0.56926 0.460112 0.31883
1548 8 0.542465 0.495693 0.097933
231 8 0.574884 0.418157 0.12175
2116 1 0.462767 0.463279 0.294391
1546 7 0.547541 0.54069 0.0903744
299 8 0.679275 0.368297 0.0621501
151 7 0.640252 0.363993 0.999306
152 8 0.61885 0.378897 -0.00531036
1529 8 0.584296 0.429841 0.263212
1003 7 0.609018 0.411436 0.128135
1005 8 0.620872 0.404608 0.167187
1004 8 0.609531 0.457533 0.122868
134 8 0.571264 0.603523 0.258173
133 7 0.590592 0.582616 0.244658
135 8 0.603717 0.579827 0.281985
1146 8 0.625314 0.484248 0.269026
1144 7 0.623015 0.439608 0.25696
1612 7 0.689427 0.607897 0.248822
1145 8 0.643423 0.419879 0.266521
586 7 0.647981 0.54481 0.304538
587 8 0.664683 0.573252 0.287907
588 8 0.648056 0.558147 0.348831
1290 8 0.65733 0.480829 0.140743
1614 8 0.670906 0.629048 0.230242
1259 8 0.635679 0.572584 0.097948
1949 8 0.601474 0.541566 0.181415
1289 8 0.677552 0.481067 0.20625
1288 7 0.675456 0.463814 0.163254
2033 8 0.691478 0.559814 0.0356951
1260 8 0.658559 0.624227 0.0832956
1258 7 0.650365 0.585739 0.0645076
271 7 0.677487 0.394663 0.291326
272 8 0.681036 0.421637 0.328917
153 8 0.654085 0.39375 0.978671
1645 7 0.573295 0.668617 0.0378498
1950 8 0.591422 0.550134 0.113925
1948 7 0.608215 0.529895 0.138494
1647 8 0.561631 0.639812 0.0645798
298 7 0.689773 0.369895 0.103226
2041 7 0.745817 0.373587 0.171141
809 8 0.75706 0.318607 0.104178
808 7 0.760127 0.312605 0.0592642
1613 8 0.705267 0.595191 0.217899
300 8 0.690298 0.413465 0.12001
2034 8 0.714551 0.55649 0.0964166
1842 8 0.732042 0.672168 0.36009
631 7 0.736473 0.569877 0.17454
632 8 0.749304 0.531795 0.179991
633 8 0.750402 0.606548 0.169594
2028 8 0.782207 0.485105 0.271855
2051 8 0.703974 0.607459 0.33486
2026 7 0.781625 0.48002 0.225718
2027 8 0.768008 0.444975 0.213377
793 7 0.776803 0.661891 0.190881
2032 7 0.713081 0.561885 0.0510628
1994 8 0.858147 0.447235 0.165901
794 8 0.779574 0.661639 0.236509
2069 8 0.786644 0.615324 0.138262
435 8 0.844455 0.640598 0.273964
775 7 0.828721 0.519696 0.15919
777 8 0.821751 0.559152 0.140835
776 8 0.810938 0.50156 0.184414
499 7 0.802804 0.661935 0.299724
2068 7 0.795804 0.605692 0.0972766
2070 8 0.816072 0.625417 0.088944
1286 8 0.774498 0.619565 0.0224207
21 8 0.794722 0.381402 0.33091
810 8 0.781281 0.317135 0.0422762
748 7 0.765839 0.513355 0.0197583
750 8 0.746497 0.530319 0.0405466
90 8 0.836299 0.300794 -0.0066293
749 8 0.771556 0.550392 0.995917
1504 7 0.989764 0.455154 0.0969306
102 8 0.86353 0.329227 0.212352
1995 8 0.879993 0.453843 0.220278
1993 7 0.873639 0.421591 0.189293
1934 8 0.965904 0.485801 0.0486535
1933 7 0.947298 0.492159 0.021972
1187 8 0.910821 0.610785 0.319979
1935 8 0.927428 0.477037 0.0420071
2100 8 0.891756 0.425804 0.09629
1608 8 0.962125 0.583 0.037135
843 8 0.887197 0.495113 0.315016
841 7 0.880018 0.504321 0.271515
842 8 0.865056 0.538087 0.262066
987 8 0.958269 0.332272 0.0284125
897 8 0.872629 0.638048 0.0563027
1607 8 0.976919 0.656755 0.0392952
2098 7 0.899692 0.463777 0.074929
2099 8 0.886887 0.499421 0.0880951
1606 7 0.978104 0.612525 0.0225668
636 8 0.0910595 0.794781 0.14434
1598 8 0.0260575 0.691013 0.158685
15 8 0.0973128 0.738777 0.27575
634 7 0.070689 0.811118 0.13079
13 7 0.0877611 0.700798 0.257678
635 8 0.0651909 0.795634 0.0886104
1597 7 0.00725622 0.717241 0.158432
1866 8 0.0340543 0.813439 0.293136
1864 7 0.0430543 0.849042 0.315474
1865 8 0.052833 0.876804 0.283051
1586 8 0.0746822 0.873788 0.199647
1587 8 0.0809557 0.94614 0.20938
1585 7 0.0701323 0.909183 0.227533
1413 8 0.0268551 1.00468 -0.00697577
1170 8 0.0439554 0.0389146 0.155508
622 7 0.0220569 0.875805 0.108866
624 8 0.0419701 0.852421 0.113507
623 8 0.00509371 0.849743 0.123665
66 8 0.0119473 0.903073 0.0373312
43 7 0.115097 0.78677 0.339682
1168 7 0.0303137 0.00385352 0.144769
1169 8 0.0377446 0.967772 0.169915
1599 8 0.998208 0.715016 0.116113
1600 7 0.138591 0.777284 0.129218
1602 8 0.134315 0.745082 0.159795
641 8 0.997554 0.785255 0.201233
640 7 0.992502 0.816798 0.234104
1555 7 0.0636224 0.814712 0.00441061
1557 8 0.0663533 0.858114 0.992999
27 8 0.131419 0.781247 0.0633176
25 7 0.130933 0.778656 0.0166541
26 8 0.1094 0.789876 0.00562358
1009 7 0.169453 0.888575 0.0210416
1784 8 0.162407 0.894415 0.202683
1783 7 0.168 0.915704 0.162926
1785 8 0.180323 0.892113 0.132385
1662 8 0.256137 0.695161 0.146409
1601 8 0.16045 0.791031 0.133872
1059 8 0.207659 0.0513651 0.0749132
696 8 0.240182 0.975815 0.153657
695 8 0.2556 0.937441 0.20848
1057 7 0.214141 0.0111213 0.0926762
765 8 0.223624 0.765384 0.341293
763 7 0.216016 0.806749 0.353872
764 8 0.234379 0.831039 0.36554
1368 8 0.15062 0.825289 0.295646
1523 8 0.209438 0.776118 0.17399
350 8 0.167371 0.943088 0.369624
1367 8 0.185612 0.830153 0.261899
349 7 0.17635 0.962719 0.331411
351 8 0.16172 0.942484 0.301624
1366 7 0.165103 0.848824 0.268925
1121 8 0.255866 0.857278 0.214477
1524 8 0.213949 0.811536 0.108694
1522 7 0.205776 0.81547 0.152201
369 8 0.217684 0.92723 0.304552
367 7 0.236635 0.914616 0.281901
368 8 0.254563 0.909597 0.309484
1058 8 0.199633 0.000581691 0.126569
1661 8 0.266002 0.744425 0.19769
1660 7 0.254335 0.705059 0.191392
1122 8 0.282304 0.84902 0.159233
1120 7 0.274886 0.835446 0.20078
1544 8 0.276737 0.912487 0.0559829
1543 7 0.286411 0.881224 0.0830137
1545 8 0.290641 0.840261 0.0620797
1010 8 0.15759 0.925822 0.00562287
1011 8 0.153439 0.855993 0.024442
1853 8 0.222478 0.728573 0.0364802
1852 7 0.229985 0.684177 0.0386409
1092 8 0.330829 0.994106 0.12511
1572 8 0.362256 0.703091 0.180947
1097 8 0.342882 0.765822 0.251855
1098 8 0.31363 0.780198 0.20334
1096 7 0.336238 0.772806 0.207602
1570 7 0.376559 0.672061 0.16241
1571 8 0.370937 0.673924 0.117166
769 7 0.341853 0.740432 0.329921
476 8 0.347219 0.787902 0.126245
1173 8 0.402192 0.90416 0.208205
475 7 0.352135 0.809941 0.0875777
741 8 0.351174 0.90964 0.188882
740 8 0.355034 0.840373 0.217587
739 7 0.36422 0.88204 0.215092
1636 7 0.414881 0.931917 0.340218
1638 8 0.420837 0.912209 0.299397
477 8 0.357439 0.849071 0.107806
1213 7 0.344809 0.953772 0.32105
1215 8 0.357859 0.916578 0.313651
1214 8 0.335655 0.970753 0.283145
220 7 0.372747 0.719704 0.00826192
222 8 0.369663 0.762018 0.0256873
1091 8 0.313759 0.923969 0.122777
1090 7 0.330296 0.95147 0.141031
564 8 0.319582 0.771314 0.0195005
562 7 0.297266 0.769613 0.0297778
563 8 0.290519 0.726593 0.0387802
1621 7 0.403963 0.840601 0.9963
915 8 0.514951 0.00430561 0.316347
603 8 0.565102 0.908795 0.377901
913 7 0.49496 0.00642205 0.294875
1974 8 0.566585 0.0221803 0.233403
991 7 0.515954 0.662335 0.360488
611 8 0.521706 0.68919 0.285649
610 7 0.519438 0.70056 0.241346
1171 7 0.425429 0.90176 0.21305
1172 8 0.432204 0.941046 0.195483
602 8 0.550867 0.83595 0.352584
601 7 0.568227 0.86346 0.366474
1271 8 0.456444 0.696672 0.149709
687 8 0.471164 0.884248 0.0609882
685 7 0.487098 0.90037 0.0318956
1272 8 0.455411 0.745953 0.0931723
1270 7 0.46822 0.712824 0.113004
1081 7 0.445839 0.840514 0.09183
1082 8 0.427569 0.838221 0.062659
1083 8 0.439611 0.845193 0.135577
711 8 0.513715 0.768931 0.363535
914 8 0.477843 0.00811275 0.324621
709 7 0.518454 0.806074 0.339249
626 8 0.46821 0.798577 0.208001
710 8 0.503793 0.808282 0.302972
648 8 0.483606 0.93711 0.17861
627 8 0.489895 0.860018 0.229295
625 7 0.485407 0.813577 0.23331
646 7 0.500253 0.918976 0.20476
647 8 0.501528 0.946695 0.241667
612 8 0.505995 0.735714 0.230511
1201 7 0.548949 0.875052 0.148892
1202 8 0.531142 0.897272 0.167734
686 8 0.497323 0.93686 0.0506334
768 8 0.487804 0.707246 0.0419823
1134 8 0.531787 0.983298 0.0428763
1640 8 0.54404 0.787793 0.118403
1641 8 0.52818 0.756711 0.0572556
1639 7 0.548333 0.769058 0.077956
1973 8 0.559825 0.0820119 0.26184
1972 7 0.571018 0.0435933 0.273421
1668 8 0.597695 0.738177 0.124148
1666 7 0.61618 0.747396 0.148855
891 8 0.646358 0.696554 0.158841
889 7 0.663921 0.668795 0.147211
1667 8 0.617311 0.793211 0.140227
992 8 0.530004 0.626096 0.365719
1788 8 0.582817 0.968409 0.00740915
359 8 0.578223 0.749627 0.364128
358 7 0.586348 0.722768 0.396569
360 8 0.608433 0.719172 0.388743
1316 8 0.677458 0.909815 0.247638
1317 8 0.655792 0.965594 0.242263
1315 7 0.671023 0.942127 0.217506
1203 8 0.561735 0.866134 0.185408
50 8 0.607623 0.849489 0.250507
364 7 0.627819 0.00705815 0.276128
366 8 0.630686 0.983957 0.316181
49 7 0.584902 0.85698 0.249567
51 8 0.580659 0.858497 0.2946
365 8 0.605984 0.0187121 0.265422
660 8 0.623278 0.902513 0.110496
659 8 0.591777 0.87707 0.108923
1761 8 0.657567 0.965876 0.15428
1759 7 0.644586 0.967504 0.115502
1760 8 0.654177 -0.000293926 0.0890134
1945 7 0.718654 0.842362 0.175025
1946 8 0.726626 0.883805 0.168235
518 8 0.679508 0.82458 0.317153
937 7 0.657972 0.811297 0.237707
939 8 0.653868 0.779583 0.205803
938 8 0.673513 0.835598 0.214598
890 8 0.684159 0.691364 0.150531
1646 8 0.565986 0.712079 0.0428668
1739 8 0.717554 0.699064 0.060479
1738 7 0.710507 0.710311 0.0170306
658 7 0.61315 0.86129 0.109674
95 8 0.640096 0.757728 0.00612482
96 8 0.646566 0.721975 0.0696382
2054 8 0.53808 0.887776 0.0177804
1046 8 0.655989 0.908163 0.046114
1047 8 0.660469 0.835709 0.0382062
1045 7 0.671626 0.875289 0.0396414
1840 7 0.741151 0.714193 0.351042
1222 7 0.752839 0.772822 0.248229
1223 8 0.74559 0.759991 0.290729
795 8 0.785059 0.702405 0.177209
433 7 0.857025 0.622486 0.239897
836 8 0.797139 0.909262 0.212355
1287 8 0.743642 0.652107 1.00132
1947 8 0.731642 0.82485 0.210057
837 8 0.774009 0.935332 0.164631
1323 8 0.811668 0.843998 0.293156
958 7 0.716503 0.724792 0.134509
835 7 0.789904 0.90213 0.169342
959 8 0.735155 0.714755 0.159691
859 7 0.823387 0.89374 0.065281
860 8 0.811816 0.891545 0.105537
861 8 0.807378 0.891815 0.0334311
16 7 0.788978 0.937714 0.293645
17 8 0.791628 0.981788 0.302297
1224 8 0.77576 0.776745 0.25029
1929 8 0.832037 0.984392 0.0455112
1321 7 0.817226 0.80683 0.268132
18 8 0.775228 0.912082 0.320907
960 8 0.714889 0.771294 0.136851
1322 8 0.819441 0.776148 0.302042
33 8 0.811692 0.803161 0.150017
1285 7 0.761057 0.626466 0.98517
32 8 0.807747 0.760707 0.0930147
31 7 0.810329 0.758606 0.1391
440 8 0.770743 0.0310786 0.0209577
1989 8 0.895351 0.956957 0.0961751
1987 7 0.892855 0.988579 0.12764
1988 8 0.904109 0.98399 0.168268
434 8 0.877498 0.624515 0.259266
1520 8 0.912492 0.662978 0.208532
1519 7 0.919057 0.64467 0.248145
1521 8 0.942178 0.649074 0.255114
955 7 0.975599 0.675844 0.266751
957 8 0.994302 0.695684 0.246855
1408 7 0.940226 0.986529 0.239406
1409 8 0.950742 0.978349 0.198559
1410 8 0.95166 0.962358 0.271009
642 8 0.973857 0.842564 0.22526
1928 8 0.858919 0.0109368 0.0942361
1394 8 0.938714 0.866005 0.162021
1395 8 0.913719 0.839589 0.212651
1393 7 0.934181 0.859978 0.208041
75 8 0.990439 0.994804 0.131176
1298 8 0.867606 0.914426 0.261023
1297 7 0.874235 0.952503 0.283107
73 7 0.967723 0.990032 0.135054
744 8 0.93629 0.826682 0.276366
1299 8 0.896574 0.961941 0.283667
929 8 0.877886 0.808151 0.295765
930 8 0.858697 0.814858 0.229299
928 7 0.878975 0.819465 0.251514
198 8 0.856214 0.635662 0.154668
2000 8 0.959831 0.911686 0.0733359
2001 8 0.92991 0.860772 0.0700574
1999 7 0.949998 0.872663 0.087578
196 7 0.847009 0.657602 0.11809
197 8 0.83589 0.69128 0.141137
78 8 0.957985 0.746729 0.0645154
76 7 0.979339 0.729727 0.0552691
1625 8 0.0111395 0.200337 0.456424
54 8 -0.00264328 0.132483 0.399081
52 7 0.997093 0.0866656 0.392058
467 8 0.090102 0.219903 0.431862
466 7 0.0736809 0.242334 0.410404
468 8 0.0709376 0.284973 0.428922
1626 8 0.0367751 0.221804 0.415127
1624 7 0.0159023 0.204426 0.410884
295 7 0.00260294 0.197135 0.534473
296 8 0.0190688 0.201538 0.566505
515 8 0.0894161 0.32648 0.510445
2060 8 0.0787454 0.098182 0.587777
514 7 0.104244 0.310718 0.542153
516 8 0.104194 0.333467 0.580484
530 8 0.120285 0.248054 0.569271
759 8 0.0142219 0.121165 0.604118
1002 8 0.142916 0.159671 0.546266
962 8 0.139546 0.0640111 0.476529
1690 7 0.0388228 0.0973361 0.513126
1691 8 0.0199846 0.0964113 0.486422
2059 7 0.0822136 0.097948 0.632981
757 7 0.0239105 0.143853 0.63818
758 8 0.0464009 0.136161 0.634759
529 7 0.13147 0.212285 0.588665
2061 8 0.104291 0.0844913 0.642857
531 8 0.132388 0.220652 0.634013
1390 7 0.0661882 0.34933 0.455128
1391 8 0.047354 0.344828 0.480394
1392 8 0.0648796 0.393616 0.443327
1517 8 0.10734 0.00601284 0.399628
961 7 0.139379 0.0189382 0.462962
1692 8 0.0495812 0.0565866 0.510562
1823 8 0.144781 0.183811 0.446736
1824 8 0.160346 0.161922 0.380533
1000 7 0.150738 0.120552 0.527338
1822 7 0.152551 0.197145 0.405977
469 7 0.195433 0.284258 0.396239
471 8 0.180237 0.249446 0.401007
840 8 0.230298 0.222046 0.465468
470 8 0.207175 0.280809 0.434263
2017 7 0.206035 0.310849 0.68007
1282 7 0.300021 0.210084 0.546562
2019 8 0.202925 0.354213 0.693147
1698 8 0.2313 0.163719 0.372492
1534 7 0.264109 0.177337 0.645597
1325 8 0.224019 0.0726313 0.465503
1283 8 0.28363 0.197061 0.57531
1536 8 0.264102 0.212357 0.676402
1789 7 0.217437 0.147615 0.5732
838 7 0.229342 0.178201 0.451428
839 8 0.251199 0.168754 0.442454
1791 8 0.231658 0.175395 0.59647
1001 8 0.170353 0.118723 0.551134
1790 8 0.219836 0.153329 0.528091
228 8 0.249618 0.03889 0.606609
1275 8 0.318389 0.298214 0.388568
821 8 0.253902 0.292572 0.511696
822 8 0.219325 0.324898 0.507452
820 7 0.231182 0.285068 0.507515
963 8 0.158426 0.996781 0.478542
1324 7 0.224904 0.0275219 0.468993
1326 8 0.241768 0.0102167 0.441549
705 8 0.197543 0.978401 0.489486
1493 8 0.276638 0.00595867 0.364333
731 8 0.201274 0.13945 0.660792
1284 8 0.311243 0.241301 0.572793
1274 8 0.34166 0.241722 0.413901
1273 7 0.337634 0.28746 0.40979
1125 8 0.294081 0.180372 0.481598
1123 7 0.291425 0.153008 0.443818
1124 8 0.308637 0.125038 0.4383
1512 8 0.377704 0.177468 0.373861
1554 8 0.299834 0.300601 0.495205
600 8 0.42939 0.197393 0.500559
994 7 0.317828 0.302913 0.620782
465 8 0.385443 0.232759 0.469376
463 7 0.37572 0.199421 0.444293
867 8 0.402196 0.309666 0.648777
464 8 0.364257 0.164922 0.466394
733 7 0.369823 0.171933 0.589083
734 8 0.388922 0.161308 0.611948
1742 8 0.403365 0.309483 0.520534
865 7 0.422206 0.303091 0.627583
866 8 0.416287 0.292478 0.584518
1741 7 0.416079 0.270458 0.51113
1978 7 0.418192 0.0508773 0.51037
996 8 0.339292 0.291891 0.631079
1957 7 0.344624 0.110701 0.490639
1959 8 0.350241 0.13123 0.530518
1958 8 0.330951 0.0753963 0.502694
1980 8 0.396098 0.0589846 0.504822
735 8 0.36725 0.217378 0.58347
1979 8 0.423739 0.00692738 0.518876
486 8 0.527059 0.328728 0.376268
485 8 0.539189 0.25974 0.363453
484 7 0.543913 0.299035 0.38672
354 8 0.53525 0.163136 0.368358
408 8 0.526216 0.966294 0.39715
406 7 0.547818 0.978775 0.390359
407 8 0.557712 1.00515 0.423593
599 8 0.435726 0.125219 0.498526
598 7 0.446239 0.166072 0.501724
277 7 0.457379 0.0730155 0.620787
278 8 0.472125 0.0372482 0.626971
1743 8 0.437786 0.286432 0.507748
910 7 0.506483 0.199245 0.512255
912 8 0.484221 0.196422 0.503335
581 8 0.542931 0.290143 0.613564
911 8 0.514063 0.236976 0.492542
708 8 0.513832 0.126831 0.522315
413 8 0.49566 0.298602 0.678381
412 7 0.479274 0.26732 0.67826
414 8 0.46045 0.289681 0.662373
1942 7 0.557161 0.287505 0.546992
1943 8 0.561159 0.248142 0.52561
1944 8 0.562773 0.325767 0.522615
582 8 0.538303 0.238498 0.661974
580 7 0.541042 0.283831 0.660006
1938 8 0.504008 0.148868 0.605899
1936 7 0.512801 0.167476 0.643804
1937 8 0.496624 0.195904 0.660942
2128 3 0.430664 0.382798 0.431825
1798 7 0.570585 0.111643 0.645606
1800 8 0.548967 0.122687 0.632975
2126 3 0.437883 0.298704 0.382379
2125 3 0.46768 0.275414 0.434969
2124 2 0.459291 0.31202 0.404788
706 7 0.518143 0.0815502 0.529631
707 8 0.540112 0.0703202 0.52044
1013 8 0.432971 0.0303705 0.445758
279 8 0.446474 0.0683558 0.58015
1108 7 0.622349 0.230868 0.332458
216 8 0.705409 0.179278 0.352049
2008 7 0.684943 0.00972654 0.441904
2073 8 0.597033 0.0785729 0.339628
2071 7 0.599325 0.112224 0.371549
2010 8 0.685578 0.0259181 0.398135
917 8 0.61741 0.231309 0.64159
1348 7 0.573179 0.0482262 0.477212
1110 8 0.61902 0.239603 0.37801
1061 8 0.671613 0.325225 0.549453
918 8 0.600461 0.189927 0.601468
916 7 0.617183 0.220562 0.596721
1569 8 0.561374 0.34527 0.436949
215 8 0.709893 0.198062 0.428235
813 8 0.631088 0.235545 0.510565
812 8 0.65002 0.18777 0.470433
811 7 0.635159 0.222263 0.467199
202 7 0.686318 0.132383 0.661952
203 8 0.695415 0.16749 0.638499
1060 7 0.682993 0.351239 0.519207
1821 8 0.597413 0.998324 0.599268
1820 8 0.629353 0.0274352 0.574635
1799 8 0.572753 0.0653467 0.648349
1803 8 0.676131 0.265538 0.705555
2076 8 0.670503 0.106044 0.519509
2009 8 0.676267 0.0459372 0.463691
1350 8 0.589741 0.021291 0.495457
1349 8 0.585229 0.0789943 0.452774
2074 7 0.680321 0.136368 0.490571
2075 8 0.703125 0.132971 0.496469
1152 8 0.670871 0.0169955 0.589989
1150 7 0.660846 0.0566179 0.576641
1151 8 0.663218 0.0899272 0.60889
1251 8 0.770391 0.186075 0.312929
1249 7 0.778434 0.18089 0.356079
1250 8 0.758795 0.184031 0.381882
1582 7 0.831171 0.166392 0.40431
214 7 0.718489 0.195937 0.385752
871 7 0.742234 0.992445 0.565031
487 7 0.784258 0.0484456 0.380405
488 8 0.77645 0.0890917 0.366548
489 8 0.80655 0.0454005 0.370268
20 8 0.790423 0.313398 0.346338
1656 8 0.747121 0.0905167 0.466729
1654 7 0.743151 0.118389 0.501673
754 7 0.736757 0.305655 0.457041
755 8 0.716483 0.32018 0.475197
756 8 0.753058 0.333859 0.470613
1655 8 0.740633 0.0911266 0.538818
281 8 0.744167 0.186937 0.657779
280 7 0.732543 0.216587 0.631784