LAMMPS data file via write_data, version 29 Aug 2024, timestep = 10000, units = real

2100 atoms
8 atom types
1400 bonds
7 bond types
700 angles
8 angle types
0 dihedrals
4 dihedral types

-22.309834490001663 22.309834490001663 xlo xhi
-11.154917245000831 11.154917245000831 ylo yhi
-11.154917245000831 11.154917245000831 zlo zhi

Atom Type Labels

1 OE
2 C
3 HC
4 H
5 CPos
6 OAlc
7 OW
8 HW

Bond Type Labels

1 g4
2 g18
3 g26
4 g27
5 g56
6 g71
7 OW-HW

Angle Type Labels

1 g12
2 g13
3 g14
4 g15
5 g51
6 g56
7 g102
8 HW-OW-HW

Dihedral Type Labels

1 g23
2 g34
3 g46
4 glj14

Masses

1 15.9994
2 12.011
3 1.008
4 1.008
5 12.011
6 15.9994
7 15.9994
8 1.008

Pair Coeffs # lj/cut/coul/long/omp

1 0.2526 2.8492
2 0.0663 3.5812
3 0.0283 2.3734
4 0 0
5 0.245 2.8114
6 0.1195 3.1
7 0.155 3.165
8 0 0

Bond Coeffs # harmonic/omp

1 1109.29 1.12
2 399.792 1.43
3 299.844 1.52
4 400.034 1.53
5 310.707 1.41
6 179.254 0.971
7 529.581 1.012

Angle Coeffs # harmonic/omp

1 47.694 109.5
2 55.1271 109.5
3 47.635 109.6
4 55.1139 111
5 54.9931 110.3
6 180.46 109
7 30.1731 110
8 37.95 113.24

Dihedral Coeffs # harmonic/omp

1 0.3011 1 3
2 1.4149 1 3
3 0.239 -1 3
4 0 1 1

Atoms # full

847 283 7 -0.82 -18.747879876157597 -5.932276511336386 -5.318898130161648 1 0 1
848 283 8 0.41 -18.911507083336545 -5.0026390148112405 -4.892730433261417 1 0 1
2059 687 7 -0.82 -21.16334510504689 -1.489550495935843 -5.196219620533331 1 0 1
849 283 8 0.41 -19.593676669862358 -6.512515916080941 -5.168734249247534 1 0 1
2060 687 8 0.41 -22.132577512096542 -1.144440241855758 -5.0650733747231245 1 0 1
2061 687 8 0.41 -21.13064802584406 -2.502110443269519 -5.077060862410157 1 0 1
961 321 7 -0.82 -18.04842346197569 -8.694044473242638 -3.549818828173561 1 1 0
963 321 8 0.41 -17.980280958228594 -7.9745283207118876 -4.2711673588927095 1 1 0
1391 464 8 0.41 -16.35390870495774 -8.601774279208708 -8.871572189238444 1 1 1
1505 502 8 0.41 -17.182755082566423 -1.606403613075523 -8.013110255682756 0 0 0
1504 502 7 -0.82 -17.151611577717272 -1.1806894816600941 -7.0870211867211745 0 0 0
1814 605 8 0.41 -19.024208063248256 -10.25135944629081 -3.800788960288947 1 0 0
1390 464 7 -0.82 -15.836182691193976 -9.285581807786853 -8.327886769423968 1 1 1
1392 464 8 0.41 -14.93693167674989 -8.85941810541803 -8.03529325457694 1 1 1
1473 491 8 0.41 20.3417055626784 -2.622291647336141 -8.199459064891364 0 0 1
2099 700 8 0.41 -18.19716822298107 -4.1752057368145055 -7.755778944307794 0 0 0
2098 700 7 -0.82 -18.393088359494982 -3.2041605075062405 -8.00834552950031 0 0 0
2100 700 8 0.41 -19.404513838177273 -3.255120084619687 -8.091799350038134 0 0 0
1123 375 7 -0.82 -18.676108202633237 10.371485068820267 10.308230733148328 0 -1 0
1124 375 8 0.41 -18.753019395512602 10.938592704540888 11.147520994284971 0 -1 0
1506 502 8 0.41 -17.322844808850775 -2.0309635340834653 -6.558748913470664 0 0 0
67 23 7 -0.82 -17.521327743453508 -6.168567472641354 -7.6984763474846 0 0 1
68 23 8 0.41 -17.7859294940665 -6.117247910269097 -6.685997003845352 0 0 1
69 23 8 0.41 -18.283076908516712 -6.671874482071542 -8.1585898625037 0 0 1
1011 337 8 0.41 -20.702274668625915 -7.048907479250721 -3.418376173954419 1 1 1
329 110 8 0.41 -19.368410679227996 -10.716379837699218 -6.837727052293488 0 1 0
1009 337 7 -0.82 -21.140842133246505 -6.760006594562736 -4.308390911650301 1 1 1
1815 605 8 0.41 -19.668098954977836 10.621868951182211 -4.459003027379078 1 -1 0
157 53 7 -0.82 -21.755161220655978 -6.0499113929421 -9.448898598542527 1 0 1
159 53 8 0.41 -21.279738683260113 -5.372500366642025 -10.07154767430286 1 0 1
158 53 8 0.41 -21.939146034819583 -6.8603739950707725 -10.051322374549496 1 0 1
1874 625 8 0.41 -21.434473516360967 -10.202407471745941 -9.992077803431725 0 0 1
1728 576 8 0.41 -14.1598409801892 9.099495746634538 -5.761579440506616 0 0 1
1068 356 8 0.41 -15.656398908513644 -5.470610899959029 -6.415671324946886 0 0 0
669 223 8 0.41 -17.645409219735537 -9.87118953998895 -9.324689019179885 0 1 1
668 223 8 0.41 -17.295460133810668 -8.984640250836962 -10.522516137676858 0 1 1
745 249 7 -0.82 -13.553906069140075 -9.347281616639657 -4.176121224154573 0 0 0
747 249 8 0.41 -14.169403294612097 -9.791903898502916 -4.873399582601566 0 0 0
696 232 8 0.41 -12.909404576004793 -2.8032148183048093 -5.674136864277617 0 0 0
1066 356 7 -0.82 -14.799059409493811 -5.179148001347702 -6.880073908474784 0 0 0
1910 637 8 0.41 -12.478152704072189 -3.9315673305866286 -8.437988326992109 0 0 1
1067 356 8 0.41 -15.062904781469669 -4.9098499819412345 -7.823872883046606 0 0 0
335 112 8 0.41 -11.233898311348652 -9.591673861288376 10.728880231038652 0 1 0
2092 698 7 -0.82 -11.452102664215 -6.352218533765952 -6.255330017588365 0 1 0
2093 698 8 0.41 -11.71982763813253 -5.370099991043745 -6.043306069042396 0 1 0
694 232 7 -0.82 -12.65162216531786 -3.7711626010161075 -5.950924025023522 0 0 0
695 232 8 0.41 -13.499902731891973 -4.2822067854033685 -6.255728769928773 0 0 0
1908 636 8 0.41 -14.529348899976902 10.147352117914942 -8.994917542512859 0 -1 0
1726 576 7 -0.82 -13.464874290468945 9.68208469026365 -6.2239990702774985 0 0 1
1906 636 7 -0.82 -14.126828647070582 10.871908642311894 -8.395154897735635 0 -1 0
1907 636 8 0.41 -14.822896156911625 -10.679947937269665 -8.422450528671718 0 0 0
315 105 8 0.41 -13.171007328906281 -8.398635801017214 -6.151561895540352 0 1 1
313 105 7 -0.82 -13.752462544730381 -8.136944361073354 -6.951631198054015 0 1 1
314 105 8 0.41 -13.737067409570592 -7.118891024568929 -7.1223912278872525 0 1 1
2037 679 8 0.41 -11.058716737685904 -2.1674553021625034 -7.7672143056738685 0 0 0
368 123 8 0.41 -12.123723784395287 10.603027433754576 -5.585458781861367 0 0 0
334 112 7 -0.82 -11.924756311338312 -10.284207751969337 10.407437538123247 0 1 0
336 112 8 0.41 -11.858345844737551 -11.053132600884478 11.101710755835537 0 1 0
2078 693 8 0.41 -12.140527360472822 -10.220530981842884 -8.154260534191783 0 0 1
667 223 7 -0.82 -18.09287439991344 -9.513792810414863 -10.176874979535942 0 1 1
392 131 8 0.41 -10.115860310066234 -9.524731415549613 -6.912840576444084 0 1 1
2077 693 7 -0.82 -11.130669024680694 -10.088792711619204 -8.269150255501954 0 0 1
746 249 8 0.41 -12.562660037542766 -9.626569380147783 -4.107469444111847 0 0 0
367 123 7 -0.82 -11.387740840376098 10.739101774692298 -4.86743465227912 0 0 0
369 123 8 0.41 -10.668044862783487 -10.9113421428598 -5.204811895223689 0 1 0
680 227 8 0.41 -9.196843664727155 -9.002280468702633 -2.6317903147759463 0 1 0
42 14 8 0.41 -9.804090457187348 -5.4918666801185845 -8.78417071823508 0 0 1
40 14 7 -0.82 -9.39640195381196 -4.568083308536237 -8.886795355724594 0 0 1
2094 698 8 0.41 -10.646173752989721 -6.661804188600994 -5.670560048099 0 1 0
1416 472 8 0.41 -6.524909354313628 -6.943999603807366 -4.398954914191849 0 1 0
41 14 8 0.41 -9.079264084325779 -4.588046918945426 -9.872023267719243 0 0 1
465 155 8 0.41 -5.594570852421306 -5.1980111960840265 -8.77643150984158 0 1 1
463 155 7 -0.82 -6.162855418838298 -4.370501272562229 -8.948659023059285 0 1 1
464 155 8 0.41 -6.620387091214287 -4.015053290156574 -8.117332634751559 0 1 1
1510 504 7 -0.82 -4.526396099754599 -6.911865055127035 -8.440389446926645 0 1 0
1511 504 8 0.41 -4.855685843035655 -7.867063582602407 -8.518052202525649 0 1 0
703 235 7 -0.82 -9.27258277520276 -6.272206574378115 -4.479105710331352 0 1 0
705 235 8 0.41 -8.423302995428553 -6.879704916089938 -4.578229481271652 0 1 0
954 318 8 0.41 -4.529419280670044 -6.067863192014351 -10.697575047059937 0 0 0
1512 504 8 0.41 -3.83586456209693 -6.9197043009250745 -7.689739560779751 0 1 0
704 235 8 0.41 -9.072642938294806 -5.351403037346728 -4.045435169618061 0 1 0
952 318 7 -0.82 -3.954553128922143 -5.946768518844339 10.76552319325777 0 0 -1
953 318 8 0.41 -3.299889151381066 -5.165737559981412 10.921535990607634 0 0 -1
2036 679 8 0.41 -9.800331466399967 -3.0982911628059515 -8.27629545520666 0 0 0
1621 541 7 -0.82 -2.5888253764574607 -8.163588165945274 10.64184269441661 0 1 0
1622 541 8 0.41 -3.293917545471153 -7.447991801950994 10.403958062885152 0 1 0
1213 405 7 -0.82 -4.207176445589759 -10.320284918896808 -4.67512463034826 0 1 0
1734 578 8 0.41 -6.662197898042926 -8.34658335565087 10.903074612835887 0 1 0
1732 578 7 -0.82 -7.439672883177421 -8.054488479797847 10.317149844083463 0 1 0
1733 578 8 0.41 -6.981717109283155 -7.596249091734247 9.541023415089676 0 1 0
353 118 8 0.41 -6.661238260704577 -4.573526963572618 -5.34767281980203 0 1 0
1215 405 8 0.41 -3.9354019061964998 -11.051201692081818 -3.9619587584157605 0 1 0
2035 679 7 -0.82 -10.04662544603983 -2.146851579733543 -7.916792417406585 0 0 0
1414 472 7 -0.82 -7.156798886930018 -7.76079620533571 -4.475013264727601 0 1 0
1214 405 8 0.41 -3.2926069754798384 -9.845462933262231 -4.828480442726427 0 1 0
1415 472 8 0.41 -6.9240928756366635 -8.391839550801855 -5.2559093860658725 0 1 0
140 47 8 0.41 -3.834476780228389 -10.302353590768956 -7.613022050874157 0 1 1
2002 668 7 -0.82 -10.527635616275555 -7.281622536629632 -8.579793545230844 0 0 1
1173 391 8 0.41 -1.7704268075101908 -10.011236673092217 -9.618269831356251 0 1 0
2004 668 8 0.41 -10.712366753279243 -8.289609966594949 -8.580426627978344 0 0 1
352 118 7 -0.82 -6.5733573384445485 -5.150918790215255 -4.496738124530182 0 1 0
1271 424 8 0.41 -5.606802665582041 -9.719215265168591 -5.8706275026271 0 1 0
681 227 8 0.41 -7.636993659946809 -9.355105936382452 -3.211297679227009 0 1 0
679 227 7 -0.82 -8.385917980291607 -9.627879599590457 -2.565764992390525 0 1 0
2003 668 8 0.41 -10.669798617883426 -6.963057025165674 -7.625107540925665 0 0 1
888 296 8 0.41 -9.090730322022269 -7.8930111012660396 11.056805224245853 0 1 0
857 286 8 0.41 -3.6863999529781317 -7.01399903443356 -4.953014767397082 0 1 0
1623 541 8 0.41 -1.8592505476869974 -8.040177828963227 9.914244877627269 0 1 0
1832 611 8 0.41 -1.3580417105636116 -6.477088076782197 -5.015794968968723 0 1 1
1833 611 8 0.41 0.14876893074456632 -7.301056776598785 -4.925586158237163 0 1 1
1831 611 7 -0.82 -0.8669779464347123 -7.368946280926519 -5.014287487151422 0 1 1
284 95 8 0.41 3.1627576079731945 -7.053574925420926 -5.391062358397572 0 0 1
1571 524 8 0.41 1.572611385188459 -6.088930541256826 -7.299658718755742 0 1 0
169 57 7 -0.82 2.9017288521035844 -10.489974897778724 -8.890988690330262 0 0 0
57 19 8 0.41 -1.8946912184771776 -4.289843015773994 -5.903677120266423 0 0 0
55 19 7 -0.82 -2.055778887950563 -4.444117759043038 -4.894747016822107 0 0 0
170 57 8 0.41 3.7651974290437025 -10.099062473001776 -8.456481868002385 0 0 0
171 57 8 0.41 3.056097355291346 -10.558780066977997 -9.897657803047894 0 0 0
1110 370 8 0.41 -1.2726760787716884 -9.525055075693686 -6.822965341031075 0 0 0
1108 370 7 -0.82 -1.9327697120844434 -9.480748595412194 -6.0291050149472305 0 0 0
1109 370 8 0.41 -1.5751301738500167 -8.567720767749897 -5.653458200171797 0 0 0
536 179 8 0.41 -0.14888414409569606 10.242734067323454 -9.108647084524282 0 0 0
1226 409 8 0.41 2.6891485836406694 10.678885968293894 -3.7531315426307454 0 0 0
674 225 8 0.41 2.5465282718075066 -4.691826451302898 -8.905876889165727 0 0 0
1171 391 7 -0.82 -0.9817831604192158 -9.730269196674916 -10.191101766737958 0 1 0
1172 391 8 0.41 -1.3962089214965978 -8.988995426276789 -10.782333213156736 0 1 0
1570 524 7 -0.82 1.4483449199653506 -6.82849214482776 -6.600803024597673 0 1 0
1572 524 8 0.41 1.099905967185716 -7.68569373885744 -7.042049850218124 0 1 0
1132 378 7 -0.82 0.5647252538696996 -8.922036359890294 -8.107385022692556 0 1 0
1134 378 8 0.41 0.3546810816975743 -9.282007678975082 -9.057570574088949 0 1 0
1133 378 8 0.41 1.5827194614469136 -9.046747033369712 -8.028682378098669 0 1 0
856 286 7 -0.82 -3.593327354505302 -6.454337610043956 -5.811097091489616 0 1 0
225 75 8 0.41 -0.07514832224354961 -7.461988347497529 8.403630640322767 0 0 0
192 64 8 0.41 -0.7381493807204116 -6.951130933101146 11.119815774919566 0 1 0
190 64 7 -0.82 -0.427348806207668 -6.015566476329149 -10.930269191816507 0 1 1
191 64 8 0.41 -1.049681660551471 -5.7883654855364295 -10.15221311976447 0 1 1
298 100 7 -0.82 4.23467629071822 -9.443635374112336 11.140352716318553 0 0 0
300 100 8 0.41 3.4480935863323445 -8.893952278957642 10.749598233524875 0 0 0
285 95 8 0.41 4.57230866842939 -7.448828430327561 -6.070470912234729 0 0 1
283 95 7 -0.82 4.175766690347928 -6.972384441974765 -5.27752488122111 0 0 1
1503 501 8 0.41 5.169553814570772 -8.12075209866331 -7.972304772243133 0 0 0
1227 409 8 0.41 2.4159562595936457 11.11825422594821 -5.25179901906704 0 0 0
1501 501 7 -0.82 5.075121048505562 -9.145773773363386 -7.944547939819392 0 0 0
1261 421 7 -0.82 6.486900495102148 -8.13234215262846 -10.751651372179422 0 1 0
1263 421 8 0.41 6.191448295728318 -7.38631078993843 -10.100574071389024 0 1 0
1502 501 8 0.41 6.0061358735013535 -9.487353720098575 -7.6884947630967435 0 0 0
1902 634 8 0.41 8.10541799995454 -5.058998654612018 -4.395300339270906 0 0 0
603 201 8 0.41 8.613014807692554 -9.591108445967508 9.466396390070518 0 1 -1
1869 623 8 0.41 4.996545684508849 -5.939456875951023 -8.853382264550495 0 0 0
299 100 8 0.41 5.116661324773823 -8.903599526380024 -11.015226450948388 0 0 1
216 72 8 0.41 8.512652638296313 8.797485703085222 10.339076970471083 0 -1 -1
2074 692 7 -0.82 9.113270278878186 -9.288665517989068 -10.975525330263611 0 0 0
488 163 8 0.41 8.641281251227273 -6.116367594441837 -8.319707833268627 0 0 0
1867 623 7 -0.82 5.680159487722634 -6.535341972156401 -8.346196952876912 0 0 0
2041 681 7 -0.82 8.091104888436899 -4.7106998401589495 -7.2899010219228435 0 0 0
1868 623 8 0.41 5.907563545099432 -6.126799311622411 -7.436433943119191 0 0 0
1631 544 8 0.41 10.819510034551776 -9.409992864022747 -7.676427102926818 0 0 0
1159 387 7 -0.82 3.920560086968095 -4.9888027517312885 -9.956730274593337 0 0 0
1161 387 8 0.41 4.337335995558146 -4.04031278649299 -9.960672476857763 0 0 0
487 163 7 -0.82 8.871373530837882 -6.950225624585741 -8.876972174768671 0 0 0
1004 335 8 0.41 4.256523685408624 -4.972114261611127 -5.282087238197849 0 1 0
1900 634 7 -0.82 7.707828158879437 -5.848361478010444 -4.931573929155771 0 0 0
2042 681 8 0.41 7.79403871548115 -5.203906894189998 -6.427586608678288 0 0 0
1901 634 8 0.41 7.652362783408972 -6.713647300484395 -4.373887669731292 0 0 0
1396 466 7 -0.82 6.709519756841555 -7.322852627664569 8.604514538142375 0 0 -1
1398 466 8 0.41 6.802896253629974 -7.468733945940669 9.601430895140368 0 0 -1
2043 681 8 0.41 7.962938597257519 -3.693568803311882 -7.271372402883648 0 0 0
1071 357 8 0.41 6.566480925897281 -2.774768428761952 -8.86908687396539 0 0 0
271 91 7 -0.82 8.03661948802338 -10.13573371012441 -5.969394747818212 0 1 0
273 91 8 0.41 8.741858306919656 -9.762353332248496 -6.622340484187331 0 1 0
1632 544 8 0.41 9.905462194205299 -8.068200758614557 -7.657123519422404 0 0 0
1630 544 7 -0.82 10.16149083099615 -8.88566813476601 -7.082517418762175 0 0 0
601 201 7 -0.82 7.99184142471157 -9.82637411886103 8.681513905983014 0 1 -1
2047 683 7 -0.82 11.984448749232591 -10.608855832624716 -8.556559211825938 0 0 0
2049 683 8 0.41 11.599308714079385 -10.736321603480574 -9.502584930643003 0 0 0
2076 692 8 0.41 9.42658897308446 -8.33537058374241 -10.769675045653534 0 0 0
2075 692 8 0.41 9.912135595264672 -9.908081229047081 11.149795208374503 0 0 -1
2048 683 8 0.41 12.863150975742762 -10.078367203765437 -8.66052176784947 0 0 0
617 206 8 0.41 11.34526596482906 -7.388304932824792 -4.274577859530173 0 0 0
637 213 7 -0.82 11.59836957830511 -10.513544049905638 -11.13257230097362 0 0 0
639 213 8 0.41 11.895751130893295 10.945690698140965 10.663649869000235 0 -1 -1
966 322 8 0.41 14.056449925658846 -5.735089135690252 -10.173284223164023 0 0 0
964 322 7 -0.82 13.09963315649437 -6.02294379654293 -9.88477538736516 0 0 0
965 322 8 0.41 12.611265309402825 -6.255944039325733 -10.748170624889875 0 0 0
489 163 8 0.41 9.441893048397624 -6.543477833570503 -9.62484675171767 0 0 0
20 7 8 0.41 14.679809484347793 10.456758774654755 -5.721952827128481 0 0 0
172 58 7 -0.82 11.756702694337768 -5.781686970250855 -4.519536895728126 0 1 0
173 58 8 0.41 12.080388666768478 -6.008468820459928 -5.471041871221974 0 1 0
174 58 8 0.41 12.637037372179982 -5.711678829960471 -3.963369504858373 0 1 0
100 34 7 -0.82 16.617260339280392 10.181919621671451 10.462686829028542 0 -1 -1
803 268 8 0.41 12.934892666159705 -6.184257681315536 -8.162323600457462 0 0 0
1934 645 8 0.41 15.2736491064626 10.90965216546634 -8.129075501249933 0 -1 0
802 268 7 -0.82 12.532545397160767 -5.8642629201534 -7.272038490553715 0 0 0
501 167 8 0.41 15.037450385675989 -6.302393658129387 -3.8033267792230454 0 0 0
1309 437 7 -0.82 13.671257659485107 -8.478291866609446 -8.78264072633842 -1 0 0
1311 437 8 0.41 13.011902449095736 -7.9811977482036305 -9.375498255128694 -1 0 0
500 167 8 0.41 14.652817035695989 -4.780110802110738 -3.965467745790103 0 0 0
92 31 8 0.41 17.102991314503065 -10.919853159854782 9.679906069057814 0 0 0
60 20 8 0.41 16.18792345642931 -4.865166835390562 -9.547139400288726 0 0 0
58 20 7 -0.82 15.87023579786377 -5.342852400875651 -10.388870931417287 0 0 0
1310 437 8 0.41 13.670473702259208 -8.366962955900581 -7.759598115378418 -1 0 0
199 67 7 -0.82 15.422180873056007 -8.108184079403475 9.968607520295997 0 0 0
91 31 7 -0.82 17.394345040663296 -10.256482202998768 8.920157592675789 0 0 0
804 268 8 0.41 11.910293054221825 -5.082731066738764 -7.514429798230666 0 0 0
2009 670 8 0.41 14.764460060544948 9.243326997108419 -9.192876456091595 0 -1 1
898 300 7 -0.82 11.743249742815138 -10.968295740247427 -3.6795003141829907 0 0 0
899 300 8 0.41 11.050940927910062 -10.28462246412754 -3.9973845702897846 0 0 0
841 281 7 -0.82 13.509627165238705 -8.40807468710031 -5.905410102532355 0 0 0
710 237 8 0.41 12.39350317209145 10.967813549573766 -6.949337155639427 0 0 0
709 237 7 -0.82 12.805944410993575 10.463737987353685 -6.157400972532648 0 0 0
711 237 8 0.41 12.27564218345784 10.796950720274392 -5.348566824552157 0 0 0
638 213 8 0.41 11.809941159970833 -9.679910785762864 10.632799643314957 0 0 -1
1048 350 7 -0.82 12.52085257763364 -7.997852483478461 10.146787895710084 0 0 0
1050 350 8 0.41 13.542631567514782 -8.15167023560458 9.98656317678384 0 0 0
1825 609 7 -0.82 -22.121154539261624 11.027855239298201 -8.999573409853465 0 -1 0
1471 491 7 -0.82 20.55931564781283 -3.5009397398121322 -7.720498949706226 0 0 1
21 7 8 0.41 15.94879504486213 -10.844809858633342 -5.724917406071588 0 1 0
1060 354 7 -0.82 16.197511322077375 -8.132074071676762 -7.6024864094018945 0 0 0
1061 354 8 0.41 15.48062167677115 -8.186780421149502 -8.32343480991878 0 0 0
1062 354 8 0.41 16.995356762904755 -8.016069570205962 -8.222557805940323 0 0 0
105 35 8 0.41 21.07076717060764 -3.787228475829898 -5.868642080034316 0 0 1
1988 663 8 0.41 18.767901742537568 -7.59164477431527 -9.203447848045883 0 1 1
1987 663 7 -0.82 17.915338988951603 -7.899904865007903 -9.69882407704269 0 1 1
1989 663 8 0.41 18.124720086506343 -8.890693507916042 -9.963276861656338 0 1 1
104 35 8 0.41 22.087601650082398 -5.047396767374599 -5.330344428830268 0 0 1
103 35 7 -0.82 21.425577598785885 -4.327313280117668 -5.049665570135743 0 0 1
512 171 8 0.41 19.10032830871495 -11.067391299231312 -10.412241250591379 0 0 0
879 293 8 0.41 20.710248016288084 -6.408583439572689 -9.010331326117399 0 0 0
877 293 7 -0.82 20.21063912863567 -6.98865727220593 -8.323043617289482 0 0 0
878 293 8 0.41 20.806458890607935 -7.273031872837256 -7.522243449542631 0 0 0
59 20 8 0.41 16.635447024774273 -5.856879787969659 -10.824661746186827 0 0 0
10 4 7 -0.82 20.84460178588987 -8.937687349379747 -4.008846333855552 0 0 1
466 156 7 -0.82 21.80596188188985 -8.096377060809344 -6.198298681616107 0 0 0
468 156 8 0.41 21.273976795101696 -8.29753493339264 -5.307713004132785 0 0 0
290 97 8 0.41 17.557828374243613 -6.6256579014553205 -6.207170146191171 0 0 0
467 156 8 0.41 22.087690964936904 -9.043813271266119 -6.463723839206946 0 0 0
492 164 8 0.41 21.496657453231734 -3.029538069564202 -3.9421433639571575 -1 0 0
291 97 8 0.41 18.72723623740891 -6.0518545339125716 -7.26816272963203 0 0 0
289 97 7 -0.82 17.909216258188465 -5.789214338838618 -6.709555798808956 0 0 0
200 67 8 0.41 15.784980216878424 -8.371404339268038 10.892006974976795 0 0 0
201 67 8 0.41 16.01375414061895 -7.371350070930102 9.521036945233448 0 0 0
490 164 7 -0.82 21.082239373395282 -2.241211239878421 -3.413979614867314 -1 0 0
1826 609 8 0.41 22.083253878421594 -11.153117821868575 -8.073336232821589 -1 0 0
1010 337 8 0.41 -21.92625919059836 -7.12557356697844 -4.847867992016219 1 1 1
2005 669 7 -0.82 16.571119019045895 -7.40885028634 -4.821315284491162 -1 0 0
2006 669 8 0.41 16.606289433876398 -8.182117811273852 -4.131350604068715 -1 0 0
843 281 8 0.41 14.045727761342711 -7.600187064404295 -5.597534942938551 0 0 0
842 281 8 0.41 12.640341878146458 -8.469616863447298 -5.3541002953287125 0 0 0
2007 669 8 0.41 16.190992782554275 -7.713152995167267 -5.7185449162537765 -1 0 0
343 115 7 -0.82 21.19637834743549 -0.014828813528749762 -6.465038748900427 0 0 1
344 115 8 0.41 21.207191981551368 -0.4538310379952488 -7.418556069343412 0 0 1
137 46 8 0.41 -16.666849696990926 1.200001688894126 -8.962453681812658 0 0 0
136 46 7 -0.82 -17.61053568828118 0.8950707207016446 -9.222473837027788 0 0 0
1893 631 8 0.41 -22.04005905844933 -2.8917952717282187 -7.87670855027765 0 0 1
138 46 8 0.41 -18.169384420561315 1.4864629909030072 -9.85880613207727 0 0 0
345 115 8 0.41 21.81880982046583 0.7888540937475828 -6.62977569405733 0 0 1
1267 423 7 -0.82 -21.39590635208826 2.206480979837341 -6.177338838456018 0 0 0
1268 423 8 0.41 -22.165294898051265 2.5724420434002653 -5.596722148533625 0 0 0
1269 423 8 0.41 -20.58433100084309 2.711496015356362 -5.785087723598287 0 0 0
212 71 8 0.41 -18.93940097798083 -0.12113940244102572 -8.35128469556906 0 0 1
211 71 7 -0.82 -19.886253960833194 -0.39083639427788874 -8.038202396771204 0 0 1
213 71 8 0.41 -20.292839634387423 0.2929659184558435 -7.401889906612395 0 0 1
177 59 8 0.41 -18.196166681108494 -0.026219758926803394 -5.839623461466932 0 0 0
175 59 7 -0.82 -18.630378328453666 0.07966875258699879 -4.915473767784228 0 0 0
176 59 8 0.41 -19.55051910476297 -0.364553244934692 -4.96840047528721 0 0 0
1861 621 7 -0.82 -22.05992522688778 -0.7858261051958415 -10.936817364527965 0 0 1
1862 621 8 0.41 22.22688855928774 0.19558029032381263 -10.94887759039176 -1 0 1
1863 621 8 0.41 -21.221036626738975 -0.9247199486425881 -10.391191552516693 0 0 1
1111 371 7 -0.82 -16.217447377748083 3.7886306135481522 -5.429993587095881 0 0 0
1113 371 8 0.41 -15.779957733281154 4.610362392160058 -5.892385000784005 0 0 0
1112 371 8 0.41 -15.449556407798221 3.080470847598889 -5.470654968017984 0 0 0
1518 506 8 0.41 -19.797960197441537 4.274326604215551 -4.256786478295888 0 0 0
1891 631 7 -0.82 -21.255807091388775 -2.7389267248781515 -8.518157853184496 0 0 1
1892 631 8 0.41 -20.72892798206597 -1.8784077067711937 -8.208423382128819 0 0 1
985 329 7 -0.82 -21.07268602367739 -3.8221600379328065 -10.96093904986301 0 0 1
987 329 8 0.41 -21.326105557627862 -3.311259510823212 -10.08218111050664 0 0 1
644 215 8 0.41 -15.942954743670331 -1.1599816515997947 -2.719899942763165 0 0 0
645 215 8 0.41 -15.987498838517244 0.4788219899621584 -3.058086214395029 0 0 0
1195 399 7 -0.82 -18.93144645027592 2.979216938738084 -5.2076273115814296 0 0 0
1197 399 8 0.41 -18.010850511321074 3.4490174937444067 -5.390848358370868 0 0 0
1196 399 8 0.41 -18.791114291466247 1.9718339199957882 -4.973756832945937 0 0 0
1155 385 8 0.41 -15.629818855204906 -5.651044036012735 -10.710277260138584 0 0 1
1153 385 7 -0.82 -15.884847650959411 -5.228691534071354 -9.818592485053088 0 0 1
1785 595 8 0.41 -16.08399764967034 2.1506152397155756 9.923296652746284 0 0 0
257 86 8 0.41 -20.138776293619394 1.862535587403988 10.921318127734022 0 0 0
1154 385 8 0.41 -16.417466810600263 -5.94458510498437 -9.311441042872985 0 0 1
1553 518 8 0.41 -12.400375609040175 -0.49664731351561464 -4.702090666529876 0 0 0
838 280 7 -0.82 -14.088391151228569 -1.6098712545513703 -11.079962237372213 0 0 1
1432 478 7 -0.82 -14.608635208010455 -1.7515024597254811 -7.65180636444501 0 0 0
1433 478 8 0.41 -14.22399113799869 -1.192173072401264 -6.889677936687074 0 0 0
1434 478 8 0.41 -15.491459122486924 -1.3431891903342148 -7.931965742211352 0 0 0
1554 518 8 0.41 -14.012024888893462 -0.9630457506991057 -4.342392821928434 0 0 0
1522 508 7 -0.82 -16.85500633971365 3.694316692271057 -9.706480126361111 0 0 0
1523 508 8 0.41 -16.080076164411945 3.1344293311445455 -9.362054754285067 0 0 0
1552 518 7 -0.82 -13.2337368196697 -1.0172906119299494 -5.023312168564784 0 0 0
1600 534 7 -0.82 -13.124254731921356 0.875906799777761 -10.25981266823266 0 0 1
1620 540 8 0.41 -9.909140674437074 1.5172394672446448 -9.266775341552702 0 0 0
1618 540 7 -0.82 -10.511649905270989 0.7214901070735937 -9.538025836583216 0 0 0
1619 540 8 0.41 -10.279779013774085 -0.15553745759620874 -9.086667327854677 0 0 0
1497 499 8 0.41 -13.449479719058983 2.3316084966955994 -5.25341030861337 0 0 0
1635 545 8 0.41 -14.449082962548296 2.133116646789402 -7.388224812670492 0 0 0
1633 545 7 -0.82 -14.718206650927325 2.151605350357979 -8.36996872527334 0 0 0
1634 545 8 0.41 -14.010058311030795 1.6489784687199975 -8.916584829505764 0 0 0
1601 534 8 0.41 -12.154537967458067 0.6949713593058657 -9.951084904433083 0 0 1
311 104 8 0.41 -11.853702826654734 5.306017817179136 -5.346555944512714 0 0 1
1602 534 8 0.41 -13.174759820528289 0.06534243375791071 -10.886770732026253 0 0 1
310 104 7 -0.82 -12.08603177377072 4.513085438817384 -5.984488539171213 0 0 1
242 81 8 0.41 -10.464383503593648 6.276773844298962 -10.689054063461079 0 0 0
1496 499 8 0.41 -14.618254242769485 1.3869567254775 -4.392965729576985 0 0 0
1495 499 7 -0.82 -14.394281621536482 1.9552564709193163 -5.2117121809223095 0 0 0
2090 697 8 0.41 -16.624512090840398 2.8585544272774044 -4.005440890046669 0 0 0
241 81 7 -0.82 -10.983768523230719 6.235111379428947 -9.791833478463175 0 0 0
243 81 8 0.41 -10.419453145210275 5.695613513233187 -9.127627405239645 0 0 0
1549 517 7 -0.82 -10.81508944270458 -3.7338492266687897 -1.0456941537342335 0 0 0
1550 517 8 0.41 -10.940707600917168 -3.506245735776565 -2.036298313420552 0 0 0
2091 697 8 0.41 -16.104575103609665 2.72460394058775 -2.37197350377501 0 0 0
2089 697 7 -0.82 -16.624117238870294 2.2878070083748394 -3.1515510214578715 0 0 0
866 289 8 0.41 -12.006732942443177 0.35655301314842447 -2.775272480656872 0 0 0
867 289 8 0.41 -13.611072903412465 0.40548601048384647 -2.450455120896052 0 0 0
778 260 7 -0.82 -7.3974534708238835 -1.81760250293663 -9.85718913513079 0 1 0
1087 363 7 -0.82 -6.598875301423137 -3.1896485963248686 -6.36035122288501 0 1 0
1089 363 8 0.41 -5.855418319061627 -2.4627533716919725 -6.3617978007415665 0 1 0
1088 363 8 0.41 -7.446995345910748 -2.6184594059546704 -6.344704603508108 0 1 0
712 238 7 -0.82 -8.831439067357104 -0.9504054207121779 -5.792664502625232 0 1 0
713 238 8 0.41 -9.329002103031323 -1.4725533146930694 -6.532310283959457 0 1 0
1567 523 7 -0.82 -2.1922019120372767 -3.688850321288455 -7.741717426818929 0 0 0
779 260 8 0.41 -8.14895436854748 -1.9488045177968374 -9.181186814293955 0 1 0
1117 373 7 -0.82 -2.514266119329598 -3.4899988338837007 -10.76241422243148 0 0 1
1118 373 8 0.41 -2.928122203787172 -2.7397642792643744 10.946483762734296 0 0 0
1568 523 8 0.41 -2.857102572274627 -4.106550732602572 -8.40283343810986 0 0 0
714 238 8 0.41 -8.703025394130357 0.037195263856034444 -5.978172948295995 0 1 0
1992 664 8 0.41 -6.054816194550572 -0.8927237375726538 -9.251283627056646 0 0 1
1990 664 7 -0.82 -5.407357613815741 -0.4969402867038948 -8.550855822170128 0 0 1
1991 664 8 0.41 -5.281574704055245 0.4739602443084916 -8.830746976529722 0 0 1
1301 434 8 0.41 -5.849285523012721 2.880098274377369 -6.278978575320639 0 0 0
1008 336 8 0.41 -6.391860542579829 4.149111222558565 -10.234541804822374 0 0 0
1007 336 8 0.41 -4.939732410952761 4.968038630128831 -9.881896685714722 0 0 0
1006 336 7 -0.82 -5.929552968677346 4.822469955805229 -9.617970928259552 0 0 0
1407 469 8 0.41 -7.8393010306824635 2.2141760169475297 -7.713232561261458 0 0 0
1300 434 7 -0.82 -5.103700150624249 3.588240214949156 -6.240171562156568 0 0 0
1302 434 8 0.41 -5.409139273221413 4.4861971732607415 -6.6555352669312065 0 0 0
1405 469 7 -0.82 -8.589989761115918 2.4532471343783495 -8.37289177386587 0 0 0
1406 469 8 0.41 -8.975717996848187 3.3800072039736726 -8.138516945742039 0 0 0
406 136 7 -0.82 -7.27448055421452 1.9392008755201466 -5.990756704247688 0 0 0
408 136 8 0.41 -8.022992505060728 2.3823793003560656 -5.461215142401175 0 0 0
407 136 8 0.41 -6.692471362049668 1.2604728389781776 -5.461111703192875 0 0 0
372 124 8 0.41 -4.594311912410912 -0.8070555597530102 -11.075583774186738 0 0 1
355 119 7 -0.82 -6.39558055686604 0.1568128555424959 -4.299345256778655 0 0 0
1384 462 7 -0.82 -8.4358669522399 -3.8014170492920405 -3.0026946290168564 0 0 0
1386 462 8 0.41 -7.613668019542059 -4.12975335046724 -3.5288768238284733 0 0 0
780 260 8 0.41 -6.98820788974265 -2.754428890432129 -9.749040932823991 0 1 0
370 124 7 -0.82 -4.145709099546206 -1.5806325159084462 10.759209675515748 0 0 0
1091 364 8 0.41 -7.108016120106987 1.4470613125583682 -9.638414780535609 0 0 1
1119 373 8 0.41 -1.5896474447190272 -3.2743029247588566 -10.401645292579545 0 0 1
1569 523 8 0.41 -1.2747382034415118 -3.435662415465692 -8.123918095930716 0 0 0
56 19 8 0.41 -1.2909081846857688 -3.822782893901741 -4.503086475795513 0 0 0
484 162 7 -0.82 0.9393911068585545 -1.409015155700553 -5.521811541530766 0 0 0
1244 415 8 0.41 0.49236974854641247 -3.1659064346161756 -8.840613889640576 0 0 0
1243 415 7 -0.82 -0.18801047243448465 -2.5788918721369125 -9.349043529225984 0 0 0
1245 415 8 0.41 0.29750395384624184 -1.7849057401966544 -9.773456256754315 0 0 0
486 162 8 0.41 0.2064724660261028 -0.718741219095735 -5.786777041631185 0 0 0
2021 674 8 0.41 -3.557200940655317 2.2664196316864214 -7.274358600072855 0 0 1
2022 674 8 0.41 -2.453168998128053 2.8052115476171373 -6.4219035424365565 0 0 1
485 162 8 0.41 1.376198096638813 -1.9191961763505798 -6.301395295964414 0 0 0
912 304 8 0.41 -4.390720880438298 -1.192542933006571 -7.3357646624669375 0 0 0